ITEM: TIMESTEP
79000000
ITEM: NUMBER OF ATOMS
1
ITEM: BOX BOUNDS pp pp ff
0.0000000000000000e+00 2.0000000000000000e+01
0.0000000000000000e+00 2.0000000000000000e+01
0.0000000000000000e+00 2.0000000000000000e+02
ITEM: ATOMS id type radius x y z vx vy vz fx fy fz c_cont
5001 2 1.25 4.77564 15.2268 8.8518 -9.44185 4.56343 4.88436 0 0 -1203.87 0
ITEM: TIMESTEP
79000100
ITEM: NUMBER OF ATOMS
1
ITEM: BOX BOUNDS pp pp ff
0.0000000000000000e+00 2.0000000000000000e+01
0.0000000000000000e+00 2.0000000000000000e+01
0.0000000000000000e+00 2.0000000000000000e+02
ITEM: ATOMS id type radius x y z vx vy vz fx fy fz c_cont
5001 2 1.25 4.77469 15.2273 8.85229 -9.44185 4.56343 4.78626 0 0 -1203.87 0
ITEM: TIMESTEP
79000200
ITEM: NUMBER OF ATOMS
1
ITEM: BOX BOUNDS pp pp ff
0.0000000000000000e+00 2.0000000000000000e+01
0.0000000000000000e+00 2.0000000000000000e+01
0.0000000000000000e+00 2.0000000000000000e+02
ITEM: ATOMS id type radius x y z vx vy vz fx fy fz c_cont
5001 2 1.25 4.77375 15.2277 8.85276 -9.44185 4.56343 4.68816 0 0 -1203.87 0
ITEM: TIMESTEP
79000300
ITEM: NUMBER OF ATOMS
1
ITEM: BOX BOUNDS pp pp ff
0.0000000000000000e+00 2.0000000000000000e+01
0.0000000000000000e+00 2.0000000000000000e+01
0.0000000000000000e+00 2.0000000000000000e+02
ITEM: ATOMS id type radius x y z vx vy vz fx fy fz c_cont
5001 2 1.25 4.7728 15.2282 8.85322 -9.44185 4.56343 4.59006 0 0 -1203.87 0
ITEM: TIMESTEP
79000400
ITEM: NUMBER OF ATOMS
1
ITEM: BOX BOUNDS pp pp ff
0.0000000000000000e+00 2.0000000000000000e+01
0.0000000000000000e+00 2.0000000000000000e+01
0.0000000000000000e+00 2.0000000000000000e+02
ITEM: ATOMS id type radius x y z vx vy vz fx fy fz c_cont
5001 2 1.25 4.77186 15.2286 8.85368 -9.44185 4.56343 4.49196 0 0 -1203.87 0
ITEM: TIMESTEP
79000500
ITEM: NUMBER OF ATOMS
1
ITEM: BOX BOUNDS pp pp ff
0.0000000000000000e+00 2.0000000000000000e+01
0.0000000000000000e+00 2.0000000000000000e+01
0.0000000000000000e+00 2.0000000000000000e+02
ITEM: ATOMS id type radius x y z vx vy vz fx fy fz c_cont
5001 2 1.25 4.77092 15.2291 8.85412 -9.44185 4.56343 4.39386 0 0 -1203.87 0
ITEM: TIMESTEP
79000600
ITEM: NUMBER OF ATOMS
1
ITEM: BOX BOUNDS pp pp ff
0.0000000000000000e+00 2.0000000000000000e+01
0.0000000000000000e+00 2.0000000000000000e+01
0.0000000000000000e+00 2.0000000000000000e+02
ITEM: ATOMS id type radius x y z vx vy vz fx fy fz c_cont
5001 2 1.25 4.76997 15.2296 8.85456 -9.44185 4.56343 4.29576 0 0 -1203.87 0
ITEM: TIMESTEP
79000700
ITEM: NUMBER OF ATOMS
1
ITEM: BOX BOUNDS pp pp ff
0.0000000000000000e+00 2.0000000000000000e+01
0.0000000000000000e+00 2.0000000000000000e+01
0.0000000000000000e+00 2.0000000000000000e+02
ITEM: ATOMS id type radius x y z vx vy vz fx fy fz c_cont
5001 2 1.25 4.76903 15.23 8.85498 -9.44185 4.56343 4.19766 0 0 -1203.87 0
ITEM: TIMESTEP
79000800
ITEM: NUMBER OF ATOMS
1
ITEM: BOX BOUNDS pp pp ff
0.0000000000000000e+00 2.0000000000000000e+01
0.0000000000000000e+00 2.0000000000000000e+01
0.0000000000000000e+00 2.0000000000000000e+02
ITEM: ATOMS id type radius x y z vx vy vz fx fy fz c_cont
5001 2 1.25 4.76808 15.2305 8.8554 -9.44185 4.56343 4.09956 0 0 -1203.87 0
ITEM: TIMESTEP
79000900
ITEM: NUMBER OF ATOMS
1
ITEM: BOX BOUNDS pp pp ff
0.0000000000000000e+00 2.0000000000000000e+01
0.0000000000000000e+00 2.0000000000000000e+01
0.0000000000000000e+00 2.0000000000000000e+02
ITEM: ATOMS id type radius x y z vx vy vz fx fy fz c_cont
5001 2 1.25 4.76714 15.2309 8.85581 -9.40013 4.69334 4.3645 2811.05 8735.48 23255.7 0
ITEM: TIMESTEP
79001000
ITEM: NUMBER OF ATOMS
1
ITEM: BOX BOUNDS pp pp ff
0.0000000000000000e+00 2.0000000000000000e+01
0.0000000000000000e+00 2.0000000000000000e+01
0.0000000000000000e+00 2.0000000000000000e+02
ITEM: ATOMS id type radius x y z vx vy vz fx fy fz c_cont
5001 2 1.25 4.76622 15.2315 8.85641 -8.85843 6.22259 8.48073 9735.46 26473.9 71541.2 0
ITEM: TIMESTEP
79001100
ITEM: NUMBER OF ATOMS
1
ITEM: BOX BOUNDS pp pp ff
0.0000000000000000e+00 2.0000000000000000e+01
0.0000000000000000e+00 2.0000000000000000e+01
0.0000000000000000e+00 2.0000000000000000e+02
ITEM: ATOMS id type radius x y z vx vy vz fx fy fz c_cont
5001 2 1.25 4.76536 15.2322 8.85756 -8.78874 7.95805 14.2166 -13566.2 9918.03 57798.7 0
ITEM: TIMESTEP
79001200
ITEM: NUMBER OF ATOMS
1
ITEM: BOX BOUNDS pp pp ff
0.0000000000000000e+00 2.0000000000000000e+01
0.0000000000000000e+00 2.0000000000000000e+01
0.0000000000000000e+00 2.0000000000000000e+02
ITEM: ATOMS id type radius x y z vx vy vz fx fy fz c_cont
5001 2 1.25 4.76439 15.233 8.85915 -10.9102 7.63334 16.8477 -35328.8 -17020 3437.16 0
ITEM: TIMESTEP
79001300
ITEM: NUMBER OF ATOMS
1
ITEM: BOX BOUNDS pp pp ff
0.0000000000000000e+00 2.0000000000000000e+01
0.0000000000000000e+00 2.0000000000000000e+01
0.0000000000000000e+00 2.0000000000000000e+02
ITEM: ATOMS id type radius x y z vx vy vz fx fy fz c_cont
5001 2 1.25 4.76315 15.2336 8.86078 -13.8136 5.77571 15.4619 -29447.9 -20153.2 -19645.5 0
ITEM: TIMESTEP
79001400
ITEM: NUMBER OF ATOMS
1
ITEM: BOX BOUNDS pp pp ff
0.0000000000000000e+00 2.0000000000000000e+01
0.0000000000000000e+00 2.0000000000000000e+01
0.0000000000000000e+00 2.0000000000000000e+02
ITEM: ATOMS id type radius x y z vx vy vz fx fy fz c_cont
5001 2 1.25 4.76168 15.2342 8.86227 -15.0576 4.93253 14.5195 792.327 679.68 -2391.77 0
ITEM: TIMESTEP
79001500
ITEM: NUMBER OF ATOMS
1
ITEM: BOX BOUNDS pp pp ff
0.0000000000000000e+00 2.0000000000000000e+01
0.0000000000000000e+00 2.0000000000000000e+01
0.0000000000000000e+00 2.0000000000000000e+02
ITEM: ATOMS id type radius x y z vx vy vz fx fy fz c_cont
5001 2 1.25 4.76019 15.2347 8.86372 -14.7217 5.17434 14.4657 4328.65 3115.28 -585.699 0
ITEM: TIMESTEP
79001600
ITEM: NUMBER OF ATOMS
1
ITEM: BOX BOUNDS pp pp ff
0.0000000000000000e+00 2.0000000000000000e+01
0.0000000000000000e+00 2.0000000000000000e+01
0.0000000000000000e+00 2.0000000000000000e+02
ITEM: ATOMS id type radius x y z vx vy vz fx fy fz c_cont
5001 2 1.25 4.75874 15.2352 8.86516 -14.4369 5.37951 14.4085 2269.61 1636.62 -876.103 0
ITEM: TIMESTEP
79001700
ITEM: NUMBER OF ATOMS
1
ITEM: BOX BOUNDS pp pp ff
0.0000000000000000e+00 2.0000000000000000e+01
0.0000000000000000e+00 2.0000000000000000e+01
0.0000000000000000e+00 2.0000000000000000e+02
ITEM: ATOMS id type radius x y z vx vy vz fx fy fz c_cont
5001 2 1.25 4.7573 15.2357 8.8666 -14.3745 5.42455 14.3194 0 0 -1203.87 0
ITEM: TIMESTEP
79001800
ITEM: NUMBER OF ATOMS
1
ITEM: BOX BOUNDS pp pp ff
0.0000000000000000e+00 2.0000000000000000e+01
0.0000000000000000e+00 2.0000000000000000e+01
0.0000000000000000e+00 2.0000000000000000e+02
ITEM: ATOMS id type radius x y z vx vy vz fx fy fz c_cont
5001 2 1.25 4.75586 15.2363 8.86803 -14.3745 5.42455 14.2213 0 0 -1203.87 0
ITEM: TIMESTEP
79001900
ITEM: NUMBER OF ATOMS
1
ITEM: BOX BOUNDS pp pp ff
0.0000000000000000e+00 2.0000000000000000e+01
0.0000000000000000e+00 2.0000000000000000e+01
0.0000000000000000e+00 2.0000000000000000e+02
ITEM: ATOMS id type radius x y z vx vy vz fx fy fz c_cont
5001 2 1.25 4.75442 15.2368 8.86944 -14.3745 5.42455 14.1232 0 0 -1203.87 0
ITEM: TIMESTEP
79002000
ITEM: NUMBER OF ATOMS
1
ITEM: BOX BOUNDS pp pp ff
0.0000000000000000e+00 2.0000000000000000e+01
0.0000000000000000e+00 2.0000000000000000e+01
0.0000000000000000e+00 2.0000000000000000e+02
ITEM: ATOMS id type radius x y z vx vy vz fx fy fz c_cont
5001 2 1.25 4.75299 15.2374 8.87085 -14.3745 5.42455 14.0251 0 0 -1203.87 0
ITEM: TIMESTEP
79002100
ITEM: NUMBER OF ATOMS
1
ITEM: BOX BOUNDS pp pp ff
0.0000000000000000e+00 2.0000000000000000e+01
0.0000000000000000e+00 2.0000000000000000e+01
0.0000000000000000e+00 2.0000000000000000e+02
ITEM: ATOMS id type radius x y z vx vy vz fx fy fz c_cont
5001 2 1.25 4.75155 15.2379 8.87225 -14.3745 5.42455 13.927 0 0 -1203.87 0
ITEM: TIMESTEP
79002200
ITEM: NUMBER OF ATOMS
1
ITEM: BOX BOUNDS pp pp ff
0.0000000000000000e+00 2.0000000000000000e+01
0.0000000000000000e+00 2.0000000000000000e+01
0.0000000000000000e+00 2.0000000000000000e+02
ITEM: ATOMS id type radius x y z vx vy vz fx fy fz c_cont
5001 2 1.25 4.75011 15.2385 8.87364 -14.3745 5.42455 13.8289 0 0 -1203.87 0
ITEM: TIMESTEP
79002300
ITEM: NUMBER OF ATOMS
1
ITEM: BOX BOUNDS pp pp ff
0.0000000000000000e+00 2.0000000000000000e+01
0.0000000000000000e+00 2.0000000000000000e+01
0.0000000000000000e+00 2.0000000000000000e+02
ITEM: ATOMS id type radius x y z vx vy vz fx fy fz c_cont
5001 2 1.25 4.74867 15.239 8.87501 -14.3745 5.42455 13.7308 0 0 -1203.87 0
ITEM: TIMESTEP
79002400
ITEM: NUMBER OF ATOMS
1
ITEM: BOX BOUNDS pp pp ff
0.0000000000000000e+00 2.0000000000000000e+01
0.0000000000000000e+00 2.0000000000000000e+01
0.0000000000000000e+00 2.0000000000000000e+02
ITEM: ATOMS id type radius x y z vx vy vz fx fy fz c_cont
5001 2 1.25 4.74724 15.2395 8.87638 -14.3745 5.42455 13.6327 0 0 -1203.87 0
ITEM: TIMESTEP
79002500
ITEM: NUMBER OF ATOMS
1
ITEM: BOX BOUNDS pp pp ff
0.0000000000000000e+00 2.0000000000000000e+01
0.0000000000000000e+00 2.0000000000000000e+01
0.0000000000000000e+00 2.0000000000000000e+02
ITEM: ATOMS id type radius x y z vx vy vz fx fy fz c_cont
5001 2 1.25 4.7458 15.2401 8.87774 -14.3745 5.42455 13.5346 0 0 -1203.87 0
ITEM: TIMESTEP
79002600
ITEM: NUMBER OF ATOMS
1
ITEM: BOX BOUNDS pp pp ff
0.0000000000000000e+00 2.0000000000000000e+01
0.0000000000000000e+00 2.0000000000000000e+01
0.0000000000000000e+00 2.0000000000000000e+02
ITEM: ATOMS id type radius x y z vx vy vz fx fy fz c_cont
5001 2 1.25 4.74436 15.2406 8.87909 -14.3745 5.42455 13.4365 0 0 -1203.87 0
ITEM: TIMESTEP
79002700
ITEM: NUMBER OF ATOMS
1
ITEM: BOX BOUNDS pp pp ff
0.0000000000000000e+00 2.0000000000000000e+01
0.0000000000000000e+00 2.0000000000000000e+01
0.0000000000000000e+00 2.0000000000000000e+02
ITEM: ATOMS id type radius x y z vx vy vz fx fy fz c_cont
5001 2 1.25 4.74292 15.2412 8.88043 -14.3745 5.42455 13.3384 0 0 -1203.87 0
ITEM: TIMESTEP
79002800
ITEM: NUMBER OF ATOMS
1
ITEM: BOX BOUNDS pp pp ff
0.0000000000000000e+00 2.0000000000000000e+01
0.0000000000000000e+00 2.0000000000000000e+01
0.0000000000000000e+00 2.0000000000000000e+02
ITEM: ATOMS id type radius x y z vx vy vz fx fy fz c_cont
5001 2 1.25 4.74149 15.2417 8.88176 -14.3745 5.42455 13.2403 0 0 -1203.87 0
ITEM: TIMESTEP
79002900
ITEM: NUMBER OF ATOMS
1
ITEM: BOX BOUNDS pp pp ff
0.0000000000000000e+00 2.0000000000000000e+01
0.0000000000000000e+00 2.0000000000000000e+01
0.0000000000000000e+00 2.0000000000000000e+02
ITEM: ATOMS id type radius x y z vx vy vz fx fy fz c_cont
5001 2 1.25 4.74005 15.2423 8.88308 -14.3745 5.42455 13.1422 0 0 -1203.87 0
ITEM: TIMESTEP
79003000
ITEM: NUMBER OF ATOMS
1
ITEM: BOX BOUNDS pp pp ff
0.0000000000000000e+00 2.0000000000000000e+01
0.0000000000000000e+00 2.0000000000000000e+01
0.0000000000000000e+00 2.0000000000000000e+02
ITEM: ATOMS id type radius x y z vx vy vz fx fy fz c_cont
5001 2 1.25 4.73861 15.2428 8.88438 -14.3745 5.42455 13.0441 0 0 -1203.87 0
ITEM: TIMESTEP
79003100
ITEM: NUMBER OF ATOMS
1
ITEM: BOX BOUNDS pp pp ff
0.0000000000000000e+00 2.0000000000000000e+01
0.0000000000000000e+00 2.0000000000000000e+01
0.0000000000000000e+00 2.0000000000000000e+02
ITEM: ATOMS id type radius x y z vx vy vz fx fy fz c_cont
5001 2 1.25 4.73717 15.2433 8.88568 -14.3745 5.42455 12.946 0 0 -1203.87 0
ITEM: TIMESTEP
79003200
ITEM: NUMBER OF ATOMS
1
ITEM: BOX BOUNDS pp pp ff
0.0000000000000000e+00 2.0000000000000000e+01
0.0000000000000000e+00 2.0000000000000000e+01
0.0000000000000000e+00 2.0000000000000000e+02
ITEM: ATOMS id type radius x y z vx vy vz fx fy fz c_cont
5001 2 1.25 4.73574 15.2439 8.88697 -14.3745 5.42455 12.8479 0 0 -1203.87 0
ITEM: TIMESTEP
79003300
ITEM: NUMBER OF ATOMS
1
ITEM: BOX BOUNDS pp pp ff
0.0000000000000000e+00 2.0000000000000000e+01
0.0000000000000000e+00 2.0000000000000000e+01
0.0000000000000000e+00 2.0000000000000000e+02
ITEM: ATOMS id type radius x y z vx vy vz fx fy fz c_cont
5001 2 1.25 4.7343 15.2444 8.88825 -14.3745 5.42455 12.7498 0 0 -1203.87 0
ITEM: TIMESTEP
79003400
ITEM: NUMBER OF ATOMS
1
ITEM: BOX BOUNDS pp pp ff
0.0000000000000000e+00 2.0000000000000000e+01
0.0000000000000000e+00 2.0000000000000000e+01
0.0000000000000000e+00 2.0000000000000000e+02
ITEM: ATOMS id type radius x y z vx vy vz fx fy fz c_cont
5001 2 1.25 4.73286 15.245 8.88952 -14.3745 5.42455 12.6517 0 0 -1203.87 0
ITEM: TIMESTEP
79003500
ITEM: NUMBER OF ATOMS
1
ITEM: BOX BOUNDS pp pp ff
0.0000000000000000e+00 2.0000000000000000e+01
0.0000000000000000e+00 2.0000000000000000e+01
0.0000000000000000e+00 2.0000000000000000e+02
ITEM: ATOMS id type radius x y z vx vy vz fx fy fz c_cont
5001 2 1.25 4.73142 15.2455 8.89078 -14.3745 5.42455 12.5536 0 0 -1203.87 0
ITEM: TIMESTEP
79003600
ITEM: NUMBER OF ATOMS
1
ITEM: BOX BOUNDS pp pp ff
0.0000000000000000e+00 2.0000000000000000e+01
0.0000000000000000e+00 2.0000000000000000e+01
0.0000000000000000e+00 2.0000000000000000e+02
ITEM: ATOMS id type radius x y z vx vy vz fx fy fz c_cont
5001 2 1.25 4.72999 15.2461 8.89203 -14.3745 5.42455 12.4555 0 0 -1203.87 0
ITEM: TIMESTEP
79003700
ITEM: NUMBER OF ATOMS
1
ITEM: BOX BOUNDS pp pp ff
0.0000000000000000e+00 2.0000000000000000e+01
0.0000000000000000e+00 2.0000000000000000e+01
0.0000000000000000e+00 2.0000000000000000e+02
ITEM: ATOMS id type radius x y z vx vy vz fx fy fz c_cont
5001 2 1.25 4.72855 15.2466 8.89328 -14.3745 5.42455 12.3574 0 0 -1203.87 0
ITEM: TIMESTEP
79003800
ITEM: NUMBER OF ATOMS
1
ITEM: BOX BOUNDS pp pp ff
0.0000000000000000e+00 2.0000000000000000e+01
0.0000000000000000e+00 2.0000000000000000e+01
0.0000000000000000e+00 2.0000000000000000e+02
ITEM: ATOMS id type radius x y z vx vy vz fx fy fz c_cont
5001 2 1.25 4.72711 15.2471 8.89451 -14.3745 5.42455 12.2593 0 0 -1203.87 0
ITEM: TIMESTEP
79003900
ITEM: NUMBER OF ATOMS
1
ITEM: BOX BOUNDS pp pp ff
0.0000000000000000e+00 2.0000000000000000e+01
0.0000000000000000e+00 2.0000000000000000e+01
0.0000000000000000e+00 2.0000000000000000e+02
ITEM: ATOMS id type radius x y z vx vy vz fx fy fz c_cont
5001 2 1.25 4.72567 15.2477 8.89573 -14.3745 5.42455 12.1612 0 0 -1203.87 0
ITEM: TIMESTEP
79004000
ITEM: NUMBER OF ATOMS
1
ITEM: BOX BOUNDS pp pp ff
0.0000000000000000e+00 2.0000000000000000e+01
0.0000000000000000e+00 2.0000000000000000e+01
0.0000000000000000e+00 2.0000000000000000e+02
ITEM: ATOMS id type radius x y z vx vy vz fx fy fz c_cont
5001 2 1.25 4.72424 15.2482 8.89694 -14.3745 5.42455 12.0631 0 0 -1203.87 0
ITEM: TIMESTEP
79004100
ITEM: NUMBER OF ATOMS
1
ITEM: BOX BOUNDS pp pp ff
0.0000000000000000e+00 2.0000000000000000e+01
0.0000000000000000e+00 2.0000000000000000e+01
0.0000000000000000e+00 2.0000000000000000e+02
ITEM: ATOMS id type radius x y z vx vy vz fx fy fz c_cont
5001 2 1.25 4.7228 15.2488 8.89814 -14.3745 5.42455 11.965 0 0 -1203.87 0
ITEM: TIMESTEP
79004200
ITEM: NUMBER OF ATOMS
1
ITEM: BOX BOUNDS pp pp ff
0.0000000000000000e+00 2.0000000000000000e+01
0.0000000000000000e+00 2.0000000000000000e+01
0.0000000000000000e+00 2.0000000000000000e+02
ITEM: ATOMS id type radius x y z vx vy vz fx fy fz c_cont
5001 2 1.25 4.72136 15.2493 8.89933 -14.3745 5.42455 11.8669 0 0 -1203.87 0
ITEM: TIMESTEP
79004300
ITEM: NUMBER OF ATOMS
1
ITEM: BOX BOUNDS pp pp ff
0.0000000000000000e+00 2.0000000000000000e+01
0.0000000000000000e+00 2.0000000000000000e+01
0.0000000000000000e+00 2.0000000000000000e+02
ITEM: ATOMS id type radius x y z vx vy vz fx fy fz c_cont
5001 2 1.25 4.71992 15.2498 8.90051 -14.3745 5.42455 11.7688 0 0 -1203.87 0
ITEM: TIMESTEP
79004400
ITEM: NUMBER OF ATOMS
1
ITEM: BOX BOUNDS pp pp ff
0.0000000000000000e+00 2.0000000000000000e+01
0.0000000000000000e+00 2.0000000000000000e+01
0.0000000000000000e+00 2.0000000000000000e+02
ITEM: ATOMS id type radius x y z vx vy vz fx fy fz c_cont
5001 2 1.25 4.71849 15.2504 8.90168 -14.3745 5.42455 11.6707 0 0 -1203.87 0
ITEM: TIMESTEP
79004500
ITEM: NUMBER OF ATOMS
1
ITEM: BOX BOUNDS pp pp ff
0.0000000000000000e+00 2.0000000000000000e+01
0.0000000000000000e+00 2.0000000000000000e+01
0.0000000000000000e+00 2.0000000000000000e+02
ITEM: ATOMS id type radius x y z vx vy vz fx fy fz c_cont
5001 2 1.25 4.71705 15.2509 8.90285 -14.3745 5.42455 11.5726 0 0 -1203.87 0
ITEM: TIMESTEP
79004600
ITEM: NUMBER OF ATOMS
1
ITEM: BOX BOUNDS pp pp ff
0.0000000000000000e+00 2.0000000000000000e+01
0.0000000000000000e+00 2.0000000000000000e+01
0.0000000000000000e+00 2.0000000000000000e+02
ITEM: ATOMS id type radius x y z vx vy vz fx fy fz c_cont
5001 2 1.25 4.71561 15.2515 8.904 -14.3745 5.42455 11.4745 0 0 -1203.87 0
ITEM: TIMESTEP
79004700
ITEM: NUMBER OF ATOMS
1
ITEM: BOX BOUNDS pp pp ff
0.0000000000000000e+00 2.0000000000000000e+01
0.0000000000000000e+00 2.0000000000000000e+01
0.0000000000000000e+00 2.0000000000000000e+02
ITEM: ATOMS id type radius x y z vx vy vz fx fy fz c_cont
5001 2 1.25 4.71417 15.252 8.90514 -14.3745 5.42455 11.3764 0 0 -1203.87 0
ITEM: TIMESTEP
79004800
ITEM: NUMBER OF ATOMS
1
ITEM: BOX BOUNDS pp pp ff
0.0000000000000000e+00 2.0000000000000000e+01
0.0000000000000000e+00 2.0000000000000000e+01
0.0000000000000000e+00 2.0000000000000000e+02
ITEM: ATOMS id type radius x y z vx vy vz fx fy fz c_cont
5001 2 1.25 4.71274 15.2526 8.90627 -14.3745 5.42455 11.2783 0 0 -1203.87 0
ITEM: TIMESTEP
79004900
ITEM: NUMBER OF ATOMS
1
ITEM: BOX BOUNDS pp pp ff
0.0000000000000000e+00 2.0000000000000000e+01
0.0000000000000000e+00 2.0000000000000000e+01
0.0000000000000000e+00 2.0000000000000000e+02
ITEM: ATOMS id type radius x y z vx vy vz fx fy fz c_cont
5001 2 1.25 4.7113 15.2531 8.9074 -14.3745 5.42455 11.1802 0 0 -1203.87 0
ITEM: TIMESTEP
79005000
ITEM: NUMBER OF ATOMS
1
ITEM: BOX BOUNDS pp pp ff
0.0000000000000000e+00 2.0000000000000000e+01
0.0000000000000000e+00 2.0000000000000000e+01
0.0000000000000000e+00 2.0000000000000000e+02
ITEM: ATOMS id type radius x y z vx vy vz fx fy fz c_cont
5001 2 1.25 4.70986 15.2536 8.90851 -14.3745 5.42455 11.0821 0 0 -1203.87 0
ITEM: TIMESTEP
79005100
ITEM: NUMBER OF ATOMS
1
ITEM: BOX BOUNDS pp pp ff
0.0000000000000000e+00 2.0000000000000000e+01
0.0000000000000000e+00 2.0000000000000000e+01
0.0000000000000000e+00 2.0000000000000000e+02
ITEM: ATOMS id type radius x y z vx vy vz fx fy fz c_cont
5001 2 1.25 4.70842 15.2542 8.90961 -14.3745 5.42455 10.984 0 0 -1203.87 0
ITEM: TIMESTEP
79005200
ITEM: NUMBER OF ATOMS
1
ITEM: BOX BOUNDS pp pp ff
0.0000000000000000e+00 2.0000000000000000e+01
0.0000000000000000e+00 2.0000000000000000e+01
0.0000000000000000e+00 2.0000000000000000e+02
ITEM: ATOMS id type radius x y z vx vy vz fx fy fz c_cont
5001 2 1.25 4.70699 15.2547 8.91071 -14.3745 5.42455 10.8859 0 0 -1203.87 0
ITEM: TIMESTEP
79005300
ITEM: NUMBER OF ATOMS
1
ITEM: BOX BOUNDS pp pp ff
0.0000000000000000e+00 2.0000000000000000e+01
0.0000000000000000e+00 2.0000000000000000e+01
0.0000000000000000e+00 2.0000000000000000e+02
ITEM: ATOMS id type radius x y z vx vy vz fx fy fz c_cont
5001 2 1.25 4.70555 15.2553 8.91179 -14.3745 5.42455 10.7878 0 0 -1203.87 0
ITEM: TIMESTEP
79005400
ITEM: NUMBER OF ATOMS
1
ITEM: BOX BOUNDS pp pp ff
0.0000000000000000e+00 2.0000000000000000e+01
0.0000000000000000e+00 2.0000000000000000e+01
0.0000000000000000e+00 2.0000000000000000e+02
ITEM: ATOMS id type radius x y z vx vy vz fx fy fz c_cont
5001 2 1.25 4.70411 15.2558 8.91287 -14.3745 5.42455 10.6897 0 0 -1203.87 0
ITEM: TIMESTEP
79005500
ITEM: NUMBER OF ATOMS
1
ITEM: BOX BOUNDS pp pp ff
0.0000000000000000e+00 2.0000000000000000e+01
0.0000000000000000e+00 2.0000000000000000e+01
0.0000000000000000e+00 2.0000000000000000e+02
ITEM: ATOMS id type radius x y z vx vy vz fx fy fz c_cont
5001 2 1.25 4.70267 15.2564 8.91393 -14.3745 5.42455 10.5916 0 0 -1203.87 0
ITEM: TIMESTEP
79005600
ITEM: NUMBER OF ATOMS
1
ITEM: BOX BOUNDS pp pp ff
0.0000000000000000e+00 2.0000000000000000e+01
0.0000000000000000e+00 2.0000000000000000e+01
0.0000000000000000e+00 2.0000000000000000e+02
ITEM: ATOMS id type radius x y z vx vy vz fx fy fz c_cont
5001 2 1.25 4.70124 15.2569 8.91498 -14.3745 5.42455 10.4935 0 0 -1203.87 0
ITEM: TIMESTEP
79005700
ITEM: NUMBER OF ATOMS
1
ITEM: BOX BOUNDS pp pp ff
0.0000000000000000e+00 2.0000000000000000e+01
0.0000000000000000e+00 2.0000000000000000e+01
0.0000000000000000e+00 2.0000000000000000e+02
ITEM: ATOMS id type radius x y z vx vy vz fx fy fz c_cont
5001 2 1.25 4.6998 15.2574 8.91603 -14.2009 5.44903 10.3706 8036.9 1134.13 -2352.56 0
ITEM: TIMESTEP
79005800
ITEM: NUMBER OF ATOMS
1
ITEM: BOX BOUNDS pp pp ff
0.0000000000000000e+00 2.0000000000000000e+01
0.0000000000000000e+00 2.0000000000000000e+01
0.0000000000000000e+00 2.0000000000000000e+02
ITEM: ATOMS id type radius x y z vx vy vz fx fy fz c_cont
5001 2 1.25 4.69843 15.258 8.91705 -13.0766 5.60797 10.1115 17918.2 2536.46 -3774.56 0
ITEM: TIMESTEP
79005900
ITEM: NUMBER OF ATOMS
1
ITEM: BOX BOUNDS pp pp ff
0.0000000000000000e+00 2.0000000000000000e+01
0.0000000000000000e+00 2.0000000000000000e+01
0.0000000000000000e+00 2.0000000000000000e+02
ITEM: ATOMS id type radius x y z vx vy vz fx fy fz c_cont
5001 2 1.25 4.69727 15.2586 8.91806 -9.52134 7.49965 10.2491 63231.6 40720.7 6737.58 0
ITEM: TIMESTEP
79006000
ITEM: NUMBER OF ATOMS
1
ITEM: BOX BOUNDS pp pp ff
0.0000000000000000e+00 2.0000000000000000e+01
0.0000000000000000e+00 2.0000000000000000e+01
0.0000000000000000e+00 2.0000000000000000e+02
ITEM: ATOMS id type radius x y z vx vy vz fx fy fz c_cont
5001 2 1.25 4.69659 15.2596 8.91913 -4.05372 11.4701 11.0716 62537.4 51069.3 12289.6 0
ITEM: TIMESTEP
79006100
ITEM: NUMBER OF ATOMS
1
ITEM: BOX BOUNDS pp pp ff
0.0000000000000000e+00 2.0000000000000000e+01
0.0000000000000000e+00 2.0000000000000000e+01
0.0000000000000000e+00 2.0000000000000000e+02
ITEM: ATOMS id type radius x y z vx vy vz fx fy fz c_cont
5001 2 1.25 4.69642 15.2609 8.92028 0.346837 15.0537 11.9185 39375.1 32132.9 7330.62 0
ITEM: TIMESTEP
79006200
ITEM: NUMBER OF ATOMS
1
ITEM: BOX BOUNDS pp pp ff
0.0000000000000000e+00 2.0000000000000000e+01
0.0000000000000000e+00 2.0000000000000000e+01
0.0000000000000000e+00 2.0000000000000000e+02
ITEM: ATOMS id type radius x y z vx vy vz fx fy fz c_cont
5001 2 1.25 4.69656 15.2625 8.92149 1.76752 16.2138 12.1305 0 0 -1203.87 0
ITEM: TIMESTEP
79006300
ITEM: NUMBER OF ATOMS
1
ITEM: BOX BOUNDS pp pp ff
0.0000000000000000e+00 2.0000000000000000e+01
0.0000000000000000e+00 2.0000000000000000e+01
0.0000000000000000e+00 2.0000000000000000e+02
ITEM: ATOMS id type radius x y z vx vy vz fx fy fz c_cont
5001 2 1.25 4.69676 15.2641 8.92271 2.40995 15.8553 12.5941 16739.1 -9393.42 13438.3 0
ITEM: TIMESTEP
79006400
ITEM: NUMBER OF ATOMS
1
ITEM: BOX BOUNDS pp pp ff
0.0000000000000000e+00 2.0000000000000000e+01
0.0000000000000000e+00 2.0000000000000000e+01
0.0000000000000000e+00 2.0000000000000000e+02
ITEM: ATOMS id type radius x y z vx vy vz fx fy fz c_cont
5001 2 1.25 4.69708 15.2656 8.92404 4.17872 14.8531 14.0447 24065.7 -13754.3 19886.3 0
ITEM: TIMESTEP
79006500
ITEM: NUMBER OF ATOMS
1
ITEM: BOX BOUNDS pp pp ff
0.0000000000000000e+00 2.0000000000000000e+01
0.0000000000000000e+00 2.0000000000000000e+01
0.0000000000000000e+00 2.0000000000000000e+02
ITEM: ATOMS id type radius x y z vx vy vz fx fy fz c_cont
5001 2 1.25 4.69759 15.2671 8.92552 5.89248 13.8653 15.4498 15576.1 -9064.86 12471.9 0
ITEM: TIMESTEP
79006600
ITEM: NUMBER OF ATOMS
1
ITEM: BOX BOUNDS pp pp ff
0.0000000000000000e+00 2.0000000000000000e+01
0.0000000000000000e+00 2.0000000000000000e+01
0.0000000000000000e+00 2.0000000000000000e+02
ITEM: ATOMS id type radius x y z vx vy vz fx fy fz c_cont
5001 2 1.25 4.69822 15.2684 8.9271 6.45826 13.5343 15.8487 0 0 -1203.87 0
ITEM: TIMESTEP
79006700
ITEM: NUMBER OF ATOMS
1
ITEM: BOX BOUNDS pp pp ff
0.0000000000000000e+00 2.0000000000000000e+01
0.0000000000000000e+00 2.0000000000000000e+01
0.0000000000000000e+00 2.0000000000000000e+02
ITEM: ATOMS id type radius x y z vx vy vz fx fy fz c_cont
5001 2 1.25 4.69886 15.2698 8.92868 6.45826 13.5343 15.7506 0 0 -1203.87 0
ITEM: TIMESTEP
79006800
ITEM: NUMBER OF ATOMS
1
ITEM: BOX BOUNDS pp pp ff
0.0000000000000000e+00 2.0000000000000000e+01
0.0000000000000000e+00 2.0000000000000000e+01
0.0000000000000000e+00 2.0000000000000000e+02
ITEM: ATOMS id type radius x y z vx vy vz fx fy fz c_cont
5001 2 1.25 4.69951 15.2711 8.93025 6.45826 13.5343 15.6525 0 0 -1203.87 0
ITEM: TIMESTEP
79006900
ITEM: NUMBER OF ATOMS
1
ITEM: BOX BOUNDS pp pp ff
0.0000000000000000e+00 2.0000000000000000e+01
0.0000000000000000e+00 2.0000000000000000e+01
0.0000000000000000e+00 2.0000000000000000e+02
ITEM: ATOMS id type radius x y z vx vy vz fx fy fz c_cont
5001 2 1.25 4.70016 15.2725 8.93181 6.45826 13.5343 15.5544 0 0 -1203.87 0
ITEM: TIMESTEP
79007000
ITEM: NUMBER OF ATOMS
1
ITEM: BOX BOUNDS pp pp ff
0.0000000000000000e+00 2.0000000000000000e+01
0.0000000000000000e+00 2.0000000000000000e+01
0.0000000000000000e+00 2.0000000000000000e+02
ITEM: ATOMS id type radius x y z vx vy vz fx fy fz c_cont
5001 2 1.25 4.7008 15.2739 8.93336 6.45826 13.5343 15.4563 0 0 -1203.87 0
ITEM: TIMESTEP
79007100
ITEM: NUMBER OF ATOMS
1
ITEM: BOX BOUNDS pp pp ff
0.0000000000000000e+00 2.0000000000000000e+01
0.0000000000000000e+00 2.0000000000000000e+01
0.0000000000000000e+00 2.0000000000000000e+02
ITEM: ATOMS id type radius x y z vx vy vz fx fy fz c_cont
5001 2 1.25 4.70145 15.2752 8.9349 6.45826 13.5343 15.3582 0 0 -1203.87 0
ITEM: TIMESTEP
79007200
ITEM: NUMBER OF ATOMS
1
ITEM: BOX BOUNDS pp pp ff
0.0000000000000000e+00 2.0000000000000000e+01
0.0000000000000000e+00 2.0000000000000000e+01
0.0000000000000000e+00 2.0000000000000000e+02
ITEM: ATOMS id type radius x y z vx vy vz fx fy fz c_cont
5001 2 1.25 4.70209 15.2766 8.93643 6.45826 13.5343 15.2601 0 0 -1203.87 0
ITEM: TIMESTEP
79007300
ITEM: NUMBER OF ATOMS
1
ITEM: BOX BOUNDS pp pp ff
0.0000000000000000e+00 2.0000000000000000e+01
0.0000000000000000e+00 2.0000000000000000e+01
0.0000000000000000e+00 2.0000000000000000e+02
ITEM: ATOMS id type radius x y z vx vy vz fx fy fz c_cont
5001 2 1.25 4.70274 15.2779 8.93795 6.45826 13.5343 15.162 0 0 -1203.87 0
ITEM: TIMESTEP
79007400
ITEM: NUMBER OF ATOMS
1
ITEM: BOX BOUNDS pp pp ff
0.0000000000000000e+00 2.0000000000000000e+01
0.0000000000000000e+00 2.0000000000000000e+01
0.0000000000000000e+00 2.0000000000000000e+02
ITEM: ATOMS id type radius x y z vx vy vz fx fy fz c_cont
5001 2 1.25 4.70339 15.2793 8.93946 6.45826 13.5343 15.0639 0 0 -1203.87 0
ITEM: TIMESTEP
79007500
ITEM: NUMBER OF ATOMS
1
ITEM: BOX BOUNDS pp pp ff
0.0000000000000000e+00 2.0000000000000000e+01
0.0000000000000000e+00 2.0000000000000000e+01
0.0000000000000000e+00 2.0000000000000000e+02
ITEM: ATOMS id type radius x y z vx vy vz fx fy fz c_cont
5001 2 1.25 4.70403 15.2806 8.94096 6.45826 13.5343 14.9658 0 0 -1203.87 0
ITEM: TIMESTEP
79007600
ITEM: NUMBER OF ATOMS
1
ITEM: BOX BOUNDS pp pp ff
0.0000000000000000e+00 2.0000000000000000e+01
0.0000000000000000e+00 2.0000000000000000e+01
0.0000000000000000e+00 2.0000000000000000e+02
ITEM: ATOMS id type radius x y z vx vy vz fx fy fz c_cont
5001 2 1.25 4.70468 15.282 8.94245 6.45826 13.5343 14.8677 0 0 -1203.87 0
ITEM: TIMESTEP
79007700
ITEM: NUMBER OF ATOMS
1
ITEM: BOX BOUNDS pp pp ff
0.0000000000000000e+00 2.0000000000000000e+01
0.0000000000000000e+00 2.0000000000000000e+01
0.0000000000000000e+00 2.0000000000000000e+02
ITEM: ATOMS id type radius x y z vx vy vz fx fy fz c_cont
5001 2 1.25 4.70532 15.2833 8.94394 6.45826 13.5343 14.7696 0 0 -1203.87 0
ITEM: TIMESTEP
79007800
ITEM: NUMBER OF ATOMS
1
ITEM: BOX BOUNDS pp pp ff
0.0000000000000000e+00 2.0000000000000000e+01
0.0000000000000000e+00 2.0000000000000000e+01
0.0000000000000000e+00 2.0000000000000000e+02
ITEM: ATOMS id type radius x y z vx vy vz fx fy fz c_cont
5001 2 1.25 4.70597 15.2847 8.94541 6.45826 13.5343 14.6715 0 0 -1203.87 0
ITEM: TIMESTEP
79007900
ITEM: NUMBER OF ATOMS
1
ITEM: BOX BOUNDS pp pp ff
0.0000000000000000e+00 2.0000000000000000e+01
0.0000000000000000e+00 2.0000000000000000e+01
0.0000000000000000e+00 2.0000000000000000e+02
ITEM: ATOMS id type radius x y z vx vy vz fx fy fz c_cont
5001 2 1.25 4.70661 15.286 8.94687 6.45826 13.5343 14.5734 0 0 -1203.87 0
ITEM: TIMESTEP
79008000
ITEM: NUMBER OF ATOMS
1
ITEM: BOX BOUNDS pp pp ff
0.0000000000000000e+00 2.0000000000000000e+01
0.0000000000000000e+00 2.0000000000000000e+01
0.0000000000000000e+00 2.0000000000000000e+02
ITEM: ATOMS id type radius x y z vx vy vz fx fy fz c_cont
5001 2 1.25 4.70726 15.2874 8.94832 6.45826 13.5343 14.4753 0 0 -1203.87 0
ITEM: TIMESTEP
79008100
ITEM: NUMBER OF ATOMS
1
ITEM: BOX BOUNDS pp pp ff
0.0000000000000000e+00 2.0000000000000000e+01
0.0000000000000000e+00 2.0000000000000000e+01
0.0000000000000000e+00 2.0000000000000000e+02
ITEM: ATOMS id type radius x y z vx vy vz fx fy fz c_cont
5001 2 1.25 4.70791 15.2887 8.94976 6.45826 13.5343 14.3772 0 0 -1203.87 0
ITEM: TIMESTEP
79008200
ITEM: NUMBER OF ATOMS
1
ITEM: BOX BOUNDS pp pp ff
0.0000000000000000e+00 2.0000000000000000e+01
0.0000000000000000e+00 2.0000000000000000e+01
0.0000000000000000e+00 2.0000000000000000e+02
ITEM: ATOMS id type radius x y z vx vy vz fx fy fz c_cont
5001 2 1.25 4.70855 15.2901 8.9512 6.45826 13.5343 14.2791 0 0 -1203.87 0
ITEM: TIMESTEP
79008300
ITEM: NUMBER OF ATOMS
1
ITEM: BOX BOUNDS pp pp ff
0.0000000000000000e+00 2.0000000000000000e+01
0.0000000000000000e+00 2.0000000000000000e+01
0.0000000000000000e+00 2.0000000000000000e+02
ITEM: ATOMS id type radius x y z vx vy vz fx fy fz c_cont
5001 2 1.25 4.7092 15.2914 8.95262 6.45826 13.5343 14.181 0 0 -1203.87 0
ITEM: TIMESTEP
79008400
ITEM: NUMBER OF ATOMS
1
ITEM: BOX BOUNDS pp pp ff
0.0000000000000000e+00 2.0000000000000000e+01
0.0000000000000000e+00 2.0000000000000000e+01
0.0000000000000000e+00 2.0000000000000000e+02
ITEM: ATOMS id type radius x y z vx vy vz fx fy fz c_cont
5001 2 1.25 4.70984 15.2928 8.95403 6.45826 13.5343 14.0829 0 0 -1203.87 0
ITEM: TIMESTEP
79008500
ITEM: NUMBER OF ATOMS
1
ITEM: BOX BOUNDS pp pp ff
0.0000000000000000e+00 2.0000000000000000e+01
0.0000000000000000e+00 2.0000000000000000e+01
0.0000000000000000e+00 2.0000000000000000e+02
ITEM: ATOMS id type radius x y z vx vy vz fx fy fz c_cont
5001 2 1.25 4.71049 15.2942 8.95544 6.45826 13.5343 13.9848 0 0 -1203.87 0
ITEM: TIMESTEP
79008600
ITEM: NUMBER OF ATOMS
1
ITEM: BOX BOUNDS pp pp ff