LAMMPS (3 Mar 2020)
package omp 0
WARNING: OpenMP support not enabled during compilation; using 1 thread only. (src/USER-OMP/fix_omp.cpp:125)
package omp 16
WARNING: OpenMP support not enabled during compilation; using 1 thread only. (src/USER-OMP/fix_omp.cpp:125)

read_restart	restart.12000000
  restoring atom style sphere from restart
  orthogonal box = (0 4.01 -0.05) to (3 6.01 0.05)
  1 by 1 by 1 MPI processor grid
  restoring pair style granular from restart
  29941 atoms
  read_restart CPU = 0.00438747 secs
#units		si
#atom_style	sphere
#dimension	2
#boundary 	p p p

#initialisation

#region 		sim_domain block 0 3 4.01 6.01 -0.05 0.05
#create_box 	4 sim_domain

region 		filling	block 	0 3 5.6 5.9 -0.05 0.05


#Intruder particle

#create_atoms 	1 single 1.5 3 0
#set 		type 1 diameter 0.1
#set		type 1	density/disc 2e10

# upper wall

#lattice 	sq 0.01
#region		upwall block 0 300 600 600 -0.5 0.5
#create_atoms	3 region upwall
#set 		type 3 diameter 0.01
#set		type 3	density/disc 2e10

#lower wall

#lattice 	sq 0.01
#region 		lowerwall block 0 300 1 1 -0.5 0.5
#create_atoms 	4 region lowerwall
#set		type 4 diameter 0.01
#set		type 4	density/disc 20

#gravity definition

group		host	   type 2
29641 atoms in group host
fix		grav host gravity 500 vector 0 -1 0

# Host particles

#fix 	ID group-ID pour N type seed keyword values
fix 	1 host pour 200000 2 29494 vol 0.9 100 diam range 0.009 0.011 region filling
Particle insertion: 8523 every 173205 steps, 200000 by step 15983716
set	type 2	density/disc 200
  29641 settings made for density/disc

#grouping atoms

#group 		intruder   type 1
#group 		upper_wall type 3
#group 		lower_wall type 4

#fix 		1_frz upper_wall freeze
fix 		2_frz lower_wall freeze
#fix 		3_frz intruder freeze

#command for time integration #only host and intruder

#fix		1_integration intruder nve/sphere disc
fix		2_integration host	nve/sphere disc
#fix 		3_integration upper_wall nve/sphere disc
#fix 		4_integation  lower_wall nve/sphere disc

comm_modify	vel yes

# pair interactions #correct gamma_n = 8e06

pair_style 	granular
pair_coeff	* * hertz 2e09 8e09 tangential mindlin 2.456e09 1 0 damping viscoelastic

fix 		2d all enforce2d

#Dumpfile


thermo_style	custom step pe ke etotal
thermo		1000
thermo_modify lost ignore

dump		1 all custom 10000 dump05.txt id type x y z vx vy vz fx fy fz omegax omegay omegaz radius

restart 	100000 restart
timestep	6e-08
run 		8000000
Resetting peratom fix info from restart file:
  fix style: NEIGH_HISTORY/omp, fix ID: NEIGH_HISTORY
All restart file peratom fix info was re-assigned
No /omp style for force computation currently active
Neighbor list info ...
  update every 1 steps, delay 10 steps, check yes
  max neighbors/atom: 2000, page size: 100000
  master list distance cutoff = 0.012
  ghost atom cutoff = 0.012
  binsize = 0.006, bins = 500 334 17
  1 neighbor lists, perpetual/occasional/extra = 1 0 0
  (1) pair granular, perpetual
      attributes: half, newton on, size, history, omp
      pair build: half/size/bin/newton/omp
      stencil: half/bin/2d/newton
      bin: standard
Per MPI rank memory allocation (min/avg/max) = 22.61 | 22.61 | 22.61 Mbytes
Step PotEng KinEng TotEng
12000000            0    7647.6088    7647.6088
12001000            0    7651.9355    7651.9355
12002000            0    7653.0189    7653.0189
12003000            0     7657.434     7657.434
12004000            0    7658.2315    7658.2315
12005000            0    7646.2269    7646.2269
12006000            0    7658.4956    7658.4956
12007000            0    7665.9772    7665.9772
12008000            0    7673.0177    7673.0177
12009000            0     7680.727     7680.727
12010000            0     7694.416     7694.416
12011000            0    7708.0518    7708.0518
12012000            0    7718.0671    7718.0671
12013000            0    7711.0884    7711.0884
12014000            0    7720.9756    7720.9756
12015000            0    7733.1411    7733.1411
12016000            0    7741.7669    7741.7669
12017000            0    7732.9952    7732.9952
12018000            0     7732.886     7732.886
12019000            0     7739.297     7739.297
12020000            0    7742.3211    7742.3211
12021000            0    7754.1232    7754.1232
12022000            0    7763.7525    7763.7525
12023000            0    7759.4039    7759.4039
12024000            0    7773.6524    7773.6524
12025000            0    7788.6712    7788.6712
12026000            0    7803.6759    7803.6759
12027000            0    7816.5324    7816.5324
12028000            0    7802.2787    7802.2787
12029000            0    7812.9655    7812.9655
12030000            0    7805.7345    7805.7345
12031000            0    7823.6593    7823.6593
12032000            0    7840.6958    7840.6958
12033000            0    7855.6211    7855.6211
12034000            0    7870.0544    7870.0544
12035000            0    7883.3182    7883.3182
12036000            0      7887.04      7887.04
12037000            0    7898.9014    7898.9014
12038000            0    7904.4863    7904.4863
12039000            0    7910.8464    7910.8464
12040000            0    7915.7805    7915.7805
12041000            0    7915.4806    7915.4806
12042000            0    7920.4336    7920.4336
12043000            0      7924.07      7924.07
12044000            0    7926.5472    7926.5472
12045000            0    7940.7309    7940.7309
12046000            0    7941.5404    7941.5404
12047000            0    7949.9639    7949.9639
12048000            0    7964.6811    7964.6811
12049000            0    7973.3395    7973.3395
12050000            0    7984.3912    7984.3912
12051000            0    8002.2231    8002.2231
12052000            0    8003.7843    8003.7843
12053000            0    7999.6563    7999.6563
12054000            0    8005.6148    8005.6148
12055000            0    8018.5378    8018.5378
12056000            0    8005.4197    8005.4197
12057000            0    8011.8424    8011.8424
12058000            0    8026.6749    8026.6749
12059000            0    8037.6045    8037.6045
12060000            0    8039.4003    8039.4003
12061000            0    8038.1624    8038.1624
12062000            0    8029.9127    8029.9127
12063000            0    8033.1102    8033.1102
12064000            0    8030.1104    8030.1104
12065000            0    8032.5859    8032.5859
12066000            0     8040.495     8040.495
12067000            0    8037.2433    8037.2433
12068000            0    8035.4346    8035.4346
12069000            0    8039.7882    8039.7882
12070000            0    8058.5355    8058.5355
12071000            0    8055.6755    8055.6755
12072000            0    8062.2351    8062.2351
12073000            0    8051.7749    8051.7749
12074000            0    8055.8994    8055.8994
12075000            0    8060.1829    8060.1829
12076000            0    8055.9967    8055.9967
12077000            0    8045.1021    8045.1021
12078000            0    8050.3518    8050.3518
12079000            0    8038.5002    8038.5002
12080000            0    8034.0908    8034.0908
12081000            0    8040.7983    8040.7983
12082000            0    8041.4672    8041.4672
12083000            0    8047.8319    8047.8319
12084000            0     8047.226     8047.226
12085000            0    8046.6432    8046.6432
12086000            0    8048.6242    8048.6242
12087000            0    8047.3941    8047.3941
12088000            0    8038.8811    8038.8811
12089000            0    8027.8955    8027.8955
12090000            0     8024.902     8024.902
12091000            0    8024.1081    8024.1081
12092000            0     8024.728     8024.728
12093000            0    8018.0756    8018.0756
12094000            0    8011.2717    8011.2717
12095000            0    8015.1415    8015.1415
12096000            0      8024.31      8024.31
12097000            0    7996.8979    7996.8979
12098000            0    7988.3429    7988.3429
12099000            0    7986.1736    7986.1736
12100000            0    7974.7355    7974.7355
12101000            0    7978.7287    7978.7287
12102000            0    7968.5597    7968.5597
12103000            0    7973.8802    7973.8802
12104000            0    7984.5024    7984.5024
12105000            0     7973.195     7973.195
12106000            0    7975.6368    7975.6368
12107000            0    7979.0844    7979.0844
12108000            0    7966.3196    7966.3196
12109000            0    7962.2265    7962.2265
12110000            0    7962.6741    7962.6741
12111000            0     7957.074     7957.074
12112000            0    7937.7587    7937.7587
12113000            0     7927.706     7927.706
12114000            0    7921.0899    7921.0899
12115000            0    7908.3438    7908.3438
12116000            0    7913.6689    7913.6689
12117000            0    7903.6736    7903.6736
12118000            0     7878.229     7878.229
12119000            0    7867.6433    7867.6433
12120000            0     7854.488     7854.488
12121000            0    7844.1137    7844.1137
12122000            0    7844.8722    7844.8722
12123000            0    7834.8215    7834.8215
12124000            0    7833.5046    7833.5046
12125000            0    7836.4905    7836.4905
12126000            0    7828.0063    7828.0063
12127000            0    7836.0361    7836.0361
12128000            0    7831.7791    7831.7791
12129000            0    7820.0275    7820.0275
12130000            0     7818.556     7818.556
12131000            0    7819.7278    7819.7278
12132000            0    7818.1528    7818.1528
12133000            0    7814.9619    7814.9619
12134000            0     7814.933     7814.933
12135000            0    7818.7185    7818.7185
12136000            0    7795.5188    7795.5188
12137000            0    7766.2345    7766.2345
12138000            0    7764.3688    7764.3688
12139000            0    7766.2349    7766.2349
12140000            0    7761.1922    7761.1922
12141000            0    7743.9109    7743.9109
12142000            0    7732.5107    7732.5107
12143000            0    7721.9711    7721.9711
12144000            0    7724.5483    7724.5483
12145000            0    7724.1081    7724.1081
12146000            0    7732.9257    7732.9257
12147000            0    7732.1134    7732.1134
12148000            0    7716.6731    7716.6731
12149000            0    7693.5367    7693.5367
12150000            0    7692.3532    7692.3532
12151000            0    7674.7781    7674.7781
12152000            0    7648.0903    7648.0903
12153000            0    7626.9676    7626.9676
12154000            0    7619.2854    7619.2854
12155000            0    7597.1929    7597.1929
12156000            0    7598.4454    7598.4454
12157000            0    7599.0222    7599.0222
12158000            0    7593.3537    7593.3537
12159000            0    7588.0024    7588.0024
12160000            0    7584.7106    7584.7106
12161000            0    7585.1132    7585.1132
12162000            0    7589.2807    7589.2807
12163000            0    7581.5142    7581.5142
12164000            0     7585.664     7585.664
12165000            0    7585.7881    7585.7881
12166000            0    7569.5465    7569.5465
12167000            0    7561.4225    7561.4225
12168000            0    7554.9608    7554.9608
12169000            0    7550.8661    7550.8661
12170000            0     7542.637     7542.637
12171000            0    7539.3395    7539.3395
12172000            0    7535.1838    7535.1838
12173000            0    7527.5551    7527.5551
12174000            0    7505.5343    7505.5343
12175000            0     7489.327     7489.327
12176000            0    7479.0685    7479.0685
12177000            0     7473.877     7473.877
12178000            0    7470.1117    7470.1117
12179000            0    7422.2511    7422.2511
12180000            0    7420.8245    7420.8245
12181000            0    7425.9201    7425.9201
12182000            0    7430.7795    7430.7795
12183000            0    7429.8204    7429.8204
12184000            0    7428.9883    7428.9883
12185000            0    7431.0977    7431.0977
12186000            0    7432.8316    7432.8316
12187000            0     7431.798     7431.798
12188000            0    7421.9514    7421.9514
12189000            0    7432.4905    7432.4905
12190000            0    7442.2202    7442.2202
12191000            0    7417.7264    7417.7264
12192000            0     7411.211     7411.211
12193000            0    7404.2331    7404.2331
12194000            0    7407.7614    7407.7614
12195000            0    7400.5766    7400.5766
12196000            0    7403.3431    7403.3431
12197000            0     7404.413     7404.413
12198000            0     7398.101     7398.101
12199000            0    7384.3623    7384.3623
12200000            0    7364.0269    7364.0269
12201000            0    7361.3143    7361.3143
12202000            0    7360.4302    7360.4302
12203000            0    7357.9893    7357.9893
12204000            0    7353.7667    7353.7667
12205000            0    7340.7822    7340.7822
12206000            0    7337.1313    7337.1313
12207000            0    7313.9061    7313.9061
12208000            0    7314.4003    7314.4003
12209000            0    7296.0633    7296.0633
12210000            0    7289.4025    7289.4025
12211000            0    7290.6714    7290.6714
12212000            0    7279.9923    7279.9923
12213000            0    7283.2661    7283.2661
12214000            0    7288.6928    7288.6928
12215000            0     7294.535     7294.535
12216000            0    7273.4809    7273.4809
12217000            0    7263.2667    7263.2667
12218000            0    7257.2235    7257.2235
12219000            0    7250.3338    7250.3338
12220000            0    7236.4903    7236.4903
12221000            0    7250.9558    7250.9558
12222000            0    7244.0633    7244.0633
12223000            0    7236.0134    7236.0134
12224000            0     7208.855     7208.855
12225000            0    7218.4524    7218.4524
12226000            0    7216.7224    7216.7224
12227000            0    7205.5432    7205.5432
12228000            0    7196.1504    7196.1504
12229000            0    7202.4323    7202.4323
12230000            0    7205.5559    7205.5559
12231000            0    7192.8542    7192.8542
12232000            0    7176.4589    7176.4589
12233000            0    7179.4762    7179.4762
12234000            0    7193.1712    7193.1712
12235000            0    7195.5638    7195.5638
12236000            0    7194.5288    7194.5288
12237000            0    7170.7643    7170.7643
12238000            0    7166.0592    7166.0592
12239000            0    7141.0645    7141.0645
12240000            0     7133.998     7133.998
12241000            0    7121.8876    7121.8876
12242000            0    7128.1515    7128.1515
12243000            0    7117.8312    7117.8312
12244000            0     7084.374     7084.374
12245000            0    7086.9504    7086.9504
12246000            0    7088.3577    7088.3577
12247000            0     7087.225     7087.225
12248000            0    7089.1231    7089.1231
12249000            0    7087.9991    7087.9991
12250000            0     7087.922     7087.922
12251000            0    7089.0038    7089.0038
12252000            0     7092.441     7092.441
12253000            0    7092.8567    7092.8567
12254000            0    7077.6982    7077.6982
12255000            0    7058.9388    7058.9388
12256000            0    7058.1713    7058.1713
12257000            0    7047.5026    7047.5026
12258000            0     7029.945     7029.945
12259000            0    7040.3571    7040.3571
12260000            0    7043.8472    7043.8472
12261000            0    7026.2583    7026.2583
12262000            0    7010.6435    7010.6435
12263000            0    6991.7342    6991.7342
12264000            0    6985.6279    6985.6279
12265000            0    6976.9466    6976.9466
12266000            0    6956.0377    6956.0377
12267000            0    6965.3888    6965.3888
12268000            0    6953.1727    6953.1727
12269000            0    6938.7155    6938.7155
12270000            0     6945.927     6945.927
12271000            0    6952.1464    6952.1464
12272000            0    6941.6845    6941.6845
12273000            0    6935.4481    6935.4481
12274000            0    6939.2615    6939.2615
12275000            0    6939.1253    6939.1253
12276000            0    6939.4075    6939.4075
12277000            0    6945.0993    6945.0993
12278000            0    6953.1515    6953.1515
12279000            0    6953.8255    6953.8255
12280000            0    6934.9848    6934.9848
12281000            0    6938.4944    6938.4944
12282000            0    6934.2799    6934.2799
12283000            0     6931.001     6931.001
12284000            0    6935.6243    6935.6243
12285000            0    6929.1091    6929.1091
12286000            0    6921.5197    6921.5197
12287000            0    6906.2651    6906.2651
12288000            0    6900.9553    6900.9553
12289000            0    6888.7868    6888.7868
12290000            0     6866.771     6866.771
12291000            0    6861.3594    6861.3594
12292000            0    6873.4059    6873.4059
12293000            0    6870.1131    6870.1131
12294000            0    6872.9461    6872.9461
12295000            0    6867.3203    6867.3203
12296000            0    6878.6037    6878.6037
12297000            0    6875.5368    6875.5368
12298000            0    6869.4463    6869.4463
12299000            0     6861.007     6861.007
12300000            0    6860.8063    6860.8063
12301000            0     6830.043     6830.043
12302000            0    6825.8202    6825.8202
12303000            0    6819.0945    6819.0945
12304000            0    6812.5882    6812.5882
12305000            0    6825.8563    6825.8563
12306000            0    6829.0214    6829.0214
12307000            0    6832.8832    6832.8832
12308000            0    6812.7738    6812.7738
12309000            0    6801.8951    6801.8951
12310000            0    6797.8338    6797.8338
12311000            0    6797.9295    6797.9295
12312000            0    6794.9526    6794.9526
12313000            0    6799.8645    6799.8645
12314000            0    6803.1554    6803.1554
12315000            0    6787.5602    6787.5602
12316000            0    6779.2668    6779.2668
12317000            0    6760.4436    6760.4436
12318000            0    6752.2269    6752.2269
12319000            0     6762.407     6762.407
12320000            0    6740.7375    6740.7375
12321000            0    6732.6627    6732.6627
12322000            0    6725.9515    6725.9515
12323000            0    6725.1834    6725.1834
12324000            0    6720.1634    6720.1634
12325000            0    6682.5832    6682.5832
12326000            0    6671.3191    6671.3191
12327000            0    6655.6342    6655.6342
12328000            0    6643.4011    6643.4011
12329000            0    6648.4421    6648.4421
12330000            0    6627.1024    6627.1024
12331000            0     6627.481     6627.481
12332000            0    6618.6942    6618.6942
12333000            0    6617.0251    6617.0251
12334000            0    6616.1928    6616.1928
12335000            0    6616.7164    6616.7164
12336000            0    6618.8626    6618.8626
12337000            0     6621.117     6621.117
12338000            0    6619.8451    6619.8451
12339000            0    6608.5804    6608.5804
12340000            0    6592.1553    6592.1553
12341000            0    6590.6311    6590.6311
12342000            0    6595.9152    6595.9152
12343000            0    6574.1376    6574.1376
12344000            0    6570.4091    6570.4091
12345000            0    6554.4415    6554.4415
12346000            0    6544.6274    6544.6274
12347000            0    6541.6609    6541.6609
12348000            0    6535.0567    6535.0567
12349000            0    6540.7758    6540.7758
12350000            0     6550.605     6550.605
12351000            0    6551.9551    6551.9551
12352000            0    6552.5029    6552.5029
12353000            0    6535.6664    6535.6664
12354000            0    6528.9877    6528.9877
12355000            0    6534.3522    6534.3522
12356000            0    6528.1179    6528.1179
12357000            0    6522.4686    6522.4686
12358000            0    6500.5446    6500.5446
12359000            0    6502.6021    6502.6021
12360000            0    6503.2897    6503.2897
12361000            0    6492.2738    6492.2738
12362000            0    6482.4079    6482.4079
12363000            0     6488.598     6488.598
12364000            0    6467.4542    6467.4542
12365000            0    6469.8943    6469.8943
12366000            0    6453.3755    6453.3755
12367000            0    6458.6733    6458.6733
12368000            0    6432.9994    6432.9994
12369000            0    6421.2127    6421.2127
12370000            0    6410.0578    6410.0578
12371000            0     6414.442     6414.442
12372000            0    6419.2777    6419.2777
12373000            0    6423.2515    6423.2515
12374000            0    6422.0184    6422.0184
12375000            0    6423.9479    6423.9479
12376000            0    6415.3851    6415.3851
12377000            0    6411.7559    6411.7559
12378000            0    6403.7792    6403.7792
12379000            0    6408.3312    6408.3312
12380000            0    6404.8878    6404.8878
12381000            0    6386.8386    6386.8386
12382000            0    6384.5297    6384.5297
12383000            0    6375.7559    6375.7559
12384000            0    6377.3448    6377.3448
12385000            0    6361.7606    6361.7606
12386000            0    6361.8208    6361.8208
12387000            0    6373.0833    6373.0833
12388000            0    6379.6107    6379.6107
12389000            0    6391.2807    6391.2807
12390000            0    6390.1614    6390.1614
12391000            0    6379.4905    6379.4905
12392000            0    6369.0079    6369.0079
12393000            0    6354.3347    6354.3347
12394000            0    6351.8572    6351.8572
12395000            0    6346.7537    6346.7537
12396000            0    6356.5365    6356.5365
12397000            0    6350.3646    6350.3646
12398000            0      6330.45      6330.45
12399000            0    6320.0558    6320.0558
12400000            0    6320.2893    6320.2893
12401000            0    6321.8869    6321.8869
12402000            0    6302.1458    6302.1458
12403000            0     6289.115     6289.115
12404000            0    6285.7982    6285.7982
12405000            0    6287.2129    6287.2129
12406000            0    6298.5061    6298.5061
12407000            0     6288.067     6288.067
12408000            0    6291.8002    6291.8002
12409000            0    6281.1953    6281.1953
12410000            0    6275.7966    6275.7966
12411000            0    6284.3683    6284.3683
12412000            0    6276.6525    6276.6525
12413000            0     6263.728     6263.728
12414000            0    6268.1901    6268.1901
12415000            0    6255.6283    6255.6283
12416000            0    6243.2796    6243.2796
12417000            0    6243.4609    6243.4609
12418000            0    6241.5381    6241.5381
12419000            0     6239.581     6239.581
12420000            0    6238.5891    6238.5891
12421000            0    6230.2864    6230.2864
12422000            0    6238.5735    6238.5735
12423000            0    6228.6519    6228.6519
12424000            0    6217.7117    6217.7117
12425000            0    6195.1536    6195.1536
12426000            0    6188.0243    6188.0243
12427000            0    6189.9264    6189.9264
12428000            0    6169.4735    6169.4735
12429000            0    6159.6351    6159.6351
12430000            0    6154.4781    6154.4781
12431000            0    6141.0845    6141.0845
12432000            0    6140.8979    6140.8979
12433000            0    6137.3399    6137.3399
12434000            0    6145.0711    6145.0711
12435000            0    6142.2439    6142.2439
12436000            0    6141.0253    6141.0253
12437000            0    6143.7767    6143.7767
12438000            0    6132.6316    6132.6316
12439000            0    6121.9742    6121.9742
12440000            0    6113.1091    6113.1091
12441000            0    6111.1723    6111.1723
12442000            0    6088.0894    6088.0894
12443000            0    6076.4212    6076.4212
12444000            0     6074.897     6074.897
12445000            0    6046.4893    6046.4893
12446000            0    6040.1472    6040.1472
12447000            0    6040.2525    6040.2525
12448000            0    6018.1413    6018.1413
12449000            0    5999.1075    5999.1075
12450000            0    5980.7354    5980.7354
12451000            0     5960.654     5960.654
12452000            0    5941.6701    5941.6701
12453000            0    5943.6004    5943.6004
12454000            0    5942.2315    5942.2315
12455000            0    5938.8977    5938.8977
12456000            0    5929.0469    5929.0469
12457000            0    5929.8098    5929.8098
12458000            0    5914.9098    5914.9098
12459000            0    5908.9375    5908.9375
12460000            0    5904.1666    5904.1666
12461000            0    5904.9262    5904.9262
12462000            0     5910.983     5910.983
12463000            0    5919.7871    5919.7871
12464000            0    5903.4645    5903.4645
12465000            0    5894.1185    5894.1185
12466000            0    5893.3852    5893.3852
12467000            0     5894.924     5894.924
12468000            0     5893.984     5893.984
12469000            0    5888.4259    5888.4259
12470000            0    5876.0891    5876.0891
12471000            0    5853.1454    5853.1454
12472000            0    5852.5431    5852.5431
12473000            0    5846.2428    5846.2428
12474000            0    5843.8582    5843.8582
12475000            0    5842.5755    5842.5755
12476000            0    5811.4823    5811.4823
12477000            0    5800.9134    5800.9134
12478000            0    5801.5507    5801.5507
12479000            0    5803.3742    5803.3742
12480000            0    5810.2032    5810.2032
12481000            0    5817.5296    5817.5296
12482000            0    5809.8514    5809.8514
12483000            0    5815.5722    5815.5722
12484000            0    5797.9788    5797.9788
12485000            0    5806.7725    5806.7725
12486000            0    5816.7903    5816.7903
12487000            0    5806.2729    5806.2729
12488000            0    5788.0802    5788.0802
12489000            0    5790.6721    5790.6721
12490000            0    5787.9348    5787.9348
12491000            0    5790.3712    5790.3712
12492000            0    5791.2295    5791.2295
12493000            0    5792.7109    5792.7109
12494000            0    5795.4751    5795.4751
12495000            0    5802.5183    5802.5183
12496000            0    5801.9328    5801.9328
12497000            0    5797.6243    5797.6243
12498000            0    5779.2786    5779.2786
12499000            0    5773.2948    5773.2948
12500000            0    5766.4941    5766.4941
12501000            0    5732.9446    5732.9446
12502000            0     5707.107     5707.107
12503000            0    5706.9887    5706.9887
12504000            0    5717.6935    5717.6935
12505000            0    5714.8001    5714.8001
12506000            0    5727.1879    5727.1879
12507000            0    5727.3563    5727.3563
12508000            0    5714.5844    5714.5844
12509000            0    5692.2849    5692.2849
12510000            0    5669.7289    5669.7289
12511000            0    5670.0246    5670.0246
12512000            0    5658.1681    5658.1681
12513000            0    5656.7326    5656.7326
12514000            0    5664.9278    5664.9278
12515000            0    5660.5953    5660.5953
12516000            0    5666.5938    5666.5938
12517000            0    5665.4872    5665.4872
12518000            0    5662.1839    5662.1839
12519000            0     5654.735     5654.735
12520000            0    5634.4368    5634.4368
12521000            0    5609.9872    5609.9872
12522000            0    5610.0688    5610.0688
12523000            0    5619.0994    5619.0994
12524000            0    5605.0602    5605.0602
12525000            0    5613.4386    5613.4386
12526000            0    5612.6987    5612.6987
12527000            0    5621.0751    5621.0751
12528000            0    5618.0987    5618.0987
12529000            0    5621.8215    5621.8215
12530000            0     5620.504     5620.504
12531000            0    5612.2432    5612.2432
12532000            0    5605.1331    5605.1331
12533000            0    5589.2215    5589.2215
12534000            0    5577.8566    5577.8566
12535000            0    5570.8622    5570.8622
12536000            0    5572.4492    5572.4492
12537000            0    5544.0131    5544.0131
12538000            0    5540.7582    5540.7582
12539000            0      5542.29      5542.29
12540000            0    5535.4865    5535.4865
12541000            0    5529.3276    5529.3276
12542000            0    5517.5267    5517.5267
12543000            0    5499.5143    5499.5143
12544000            0    5493.8238    5493.8238
12545000            0    5481.1304    5481.1304
12546000            0     5487.898     5487.898
12547000            0    5497.9069    5497.9069
12548000            0    5493.5193    5493.5193
12549000            0    5493.3806    5493.3806
12550000            0    5497.4353    5497.4353
12551000            0     5502.752     5502.752
12552000            0    5508.7543    5508.7543
12553000            0    5519.1158    5519.1158
12554000            0    5527.0773    5527.0773
12555000            0    5532.4198    5532.4198
12556000            0    5535.7838    5535.7838
12557000            0    5531.6962    5531.6962
12558000            0    5519.8619    5519.8619
12559000            0    5515.2764    5515.2764
12560000            0    5511.7789    5511.7789
12561000            0    5508.5577    5508.5577
12562000            0    5499.5819    5499.5819
12563000            0    5482.7766    5482.7766
12564000            0     5492.747     5492.747
12565000            0    5504.8391    5504.8391
12566000            0    5504.4487    5504.4487
12567000            0    5501.3836    5501.3836
12568000            0    5479.5872    5479.5872
12569000            0    5478.2548    5478.2548
12570000            0    5470.7267    5470.7267
12571000            0    5463.1087    5463.1087
12572000            0    5433.7558    5433.7558
12573000            0    5432.3178    5432.3178
12574000            0    5425.2368    5425.2368
12575000            0    5410.8152    5410.8152
12576000            0    5412.3614    5412.3614
12577000            0    5400.5353    5400.5353
12578000            0    5400.0901    5400.0901
12579000            0    5407.2526    5407.2526
12580000            0     5401.313     5401.313
12581000            0    5382.4637    5382.4637
12582000            0    5351.6138    5351.6138
12583000            0    5348.9104    5348.9104
12584000            0    5346.8521    5346.8521
12585000            0     5333.243     5333.243
12586000            0    5324.8399    5324.8399
12587000            0    5326.7419    5326.7419
12588000            0    5312.0548    5312.0548
12589000            0    5324.3927    5324.3927
12590000            0     5318.559     5318.559
12591000            0    5305.5299    5305.5299
12592000            0    5298.9043    5298.9043
12593000            0    5296.3597    5296.3597
12594000            0    5254.3189    5254.3189
12595000            0    5253.3449    5253.3449
12596000            0     5256.599     5256.599
12597000            0    5258.5383    5258.5383
12598000            0    5263.2181    5263.2181
12599000            0    5265.5037    5265.5037
12600000            0     5253.315     5253.315
12601000            0     5233.143     5233.143
12602000            0    5228.5771    5228.5771
12603000            0    5236.2946    5236.2946
12604000            0    5221.8898    5221.8898
12605000            0    5216.1711    5216.1711
12606000            0    5220.0839    5220.0839
12607000            0      5224.42      5224.42
12608000            0    5214.6405    5214.6405
12609000            0    5215.7071    5215.7071
12610000            0    5224.3557    5224.3557
12611000            0    5209.0469    5209.0469
12612000            0    5203.3121    5203.3121
12613000            0    5196.8939    5196.8939
12614000            0    5195.3336    5195.3336
12615000            0    5176.2036    5176.2036
12616000            0    5163.4406    5163.4406
12617000            0    5147.3489    5147.3489
12618000            0    5134.6673    5134.6673
12619000            0    5115.4997    5115.4997
12620000            0    5102.2255    5102.2255
12621000            0    5106.2131    5106.2131
12622000            0    5111.6762    5111.6762
12623000            0    5072.2497    5072.2497
12624000            0    5052.5657    5052.5657
12625000            0    5060.1092    5060.1092
12626000            0    5058.1692    5058.1692
12627000            0    5057.0328    5057.0328
12628000            0    5043.5145    5043.5145
12629000            0    5038.7675    5038.7675
12630000            0    5039.5371    5039.5371
12631000            0    5022.8674    5022.8674
12632000            0    5024.3738    5024.3738
12633000            0    5006.3098    5006.3098
12634000            0    4998.5767    4998.5767
12635000            0    4994.1334    4994.1334
12636000            0    4990.3825    4990.3825
12637000            0    4975.8456    4975.8456
12638000            0    4959.6437    4959.6437
12639000            0    4952.9283    4952.9283
12640000            0    4934.6987    4934.6987
12641000            0     4939.301     4939.301
12642000            0    4925.7926    4925.7926
12643000            0    4916.0266    4916.0266
12644000            0    4911.7587    4911.7587
12645000            0    4905.2909    4905.2909
12646000            0    4881.2533    4881.2533
12647000            0    4871.3444    4871.3444
12648000            0      4851.32      4851.32
12649000            0    4861.0913    4861.0913
12650000            0    4853.2899    4853.2899
12651000            0    4827.9855    4827.9855
12652000            0    4817.2684    4817.2684
12653000            0     4815.691     4815.691
12654000            0     4810.446     4810.446
12655000            0    4812.4539    4812.4539
12656000            0    4792.8037    4792.8037
12657000            0    4787.9586    4787.9586
12658000            0    4773.8026    4773.8026
12659000            0    4767.6304    4767.6304
12660000            0    4751.1748    4751.1748
12661000            0    4739.0024    4739.0024
12662000            0     4711.116     4711.116
12663000            0    4714.1748    4714.1748
12664000            0    4700.3616    4700.3616
12665000            0    4708.0604    4708.0604
12666000            0     4700.045     4700.045
12667000            0    4687.9449    4687.9449
12668000            0    4671.6213    4671.6213
12669000            0    4664.6628    4664.6628
12670000            0     4640.289     4640.289
12671000            0    4630.8411    4630.8411
12672000            0    4631.5237    4631.5237
12673000            0    4619.2821    4619.2821
12674000            0    4624.3666    4624.3666
12675000            0    4619.7808    4619.7808
12676000            0    4609.6321    4609.6321
12677000            0     4606.767     4606.767
12678000            0    4599.5875    4599.5875
12679000            0    4590.5914    4590.5914
12680000            0    4565.8478    4565.8478
12681000            0    4543.5364    4543.5364
12682000            0    4525.6071    4525.6071
12683000            0    4518.8558    4518.8558
12684000            0    4501.7823    4501.7823
12685000            0    4498.7777    4498.7777
12686000            0    4501.6192    4501.6192
12687000            0    4481.7538    4481.7538
12688000            0    4459.8394    4459.8394
12689000            0    4454.6098    4454.6098
12690000            0    4447.8432    4447.8432
12691000            0    4438.3439    4438.3439
12692000            0    4423.8975    4423.8975
12693000            0    4424.0605    4424.0605
12694000            0    4414.5566    4414.5566
12695000            0    4393.5622    4393.5622
12696000            0    4379.0206    4379.0206
12697000            0    4379.8817    4379.8817
12698000            0    4375.3664    4375.3664
12699000            0     4359.005     4359.005
12700000            0    4362.1998    4362.1998
12701000            0    4360.3454    4360.3454
12702000            0     4345.741     4345.741
12703000            0    4331.7666    4331.7666
12704000            0    4324.9255    4324.9255
12705000            0    4303.8338    4303.8338
12706000            0    4290.7186    4290.7186
12707000            0    4292.1963    4292.1963
12708000            0    4280.5612    4280.5612
12709000            0    4261.9058    4261.9058
12710000            0    4245.1675    4245.1675
12711000            0    4210.5975    4210.5975
12712000            0     4199.826     4199.826
12713000            0    4197.7482    4197.7482
12714000            0     4207.732     4207.732
12715000            0     4206.068     4206.068
12716000            0    4185.5894    4185.5894
12717000            0    4160.1769    4160.1769
12718000            0    4148.1597    4148.1597
12719000            0    4135.0059    4135.0059
12720000            0    4121.9979    4121.9979
12721000            0    4124.4647    4124.4647
12722000            0    4125.1352    4125.1352
12723000            0    4123.1167    4123.1167
12724000            0    4122.6597    4122.6597
12725000            0    4117.3965    4117.3965
12726000            0    4102.9996    4102.9996
12727000            0    4110.0224    4110.0224
12728000            0    4089.0551    4089.0551
12729000            0    4086.0077    4086.0077
12730000            0    4076.6372    4076.6372
12731000            0     4078.105     4078.105
12732000            0    4053.4592    4053.4592
12733000            0    4043.8892    4043.8892
12734000            0    4042.3467    4042.3467
12735000            0    4045.7764    4045.7764
12736000            0    4046.2706    4046.2706
12737000            0    4040.3321    4040.3321
12738000            0    4020.7936    4020.7936
12739000            0      4009.94      4009.94
12740000            0    4008.8852    4008.8852
12741000            0    4002.3632    4002.3632
12742000            0     3987.519     3987.519
12743000            0    3983.4609    3983.4609
12744000            0    3968.0258    3968.0258
12745000            0    3943.2663    3943.2663
12746000            0    3917.9493    3917.9493
12747000            0       3913.6       3913.6
12748000            0    3909.8942    3909.8942
12749000            0     3898.112     3898.112
12750000            0    3877.1001    3877.1001
12751000            0     3873.362     3873.362
12752000            0    3844.4776    3844.4776
12753000            0    3835.9564    3835.9564
12754000            0     3813.348     3813.348
12755000            0     3801.243     3801.243
12756000            0    3809.4651    3809.4651
12757000            0    3809.0856    3809.0856
12758000            0    3814.1196    3814.1196
12759000            0    3783.0719    3783.0719
12760000            0    3762.8897    3762.8897
12761000            0    3756.8175    3756.8175
12762000            0    3759.5262    3759.5262
12763000            0    3740.0983    3740.0983
12764000            0    3737.5832    3737.5832
12765000            0     3736.436     3736.436
12766000            0    3719.9389    3719.9389
12767000            0    3703.5722    3703.5722
12768000            0    3684.3719    3684.3719
12769000            0    3684.4616    3684.4616
12770000            0    3682.6413    3682.6413
12771000            0    3663.9379    3663.9379
12772000            0    3658.8579    3658.8579
12773000            0    3646.8642    3646.8642
12774000            0    3637.1817    3637.1817
12775000            0    3639.8645    3639.8645
12776000            0    3631.0285    3631.0285
12777000            0    3618.8998    3618.8998
12778000            0    3607.5089    3607.5089
12779000            0    3599.7688    3599.7688
12780000            0    3592.4585    3592.4585
12781000            0    3588.9767    3588.9767
12782000            0     3574.737     3574.737
12783000            0    3568.9796    3568.9796
12784000            0    3571.6202    3571.6202
12785000            0    3556.4765    3556.4765
12786000            0    3539.1348    3539.1348
12787000            0    3517.5949    3517.5949
12788000            0    3514.2641    3514.2641
12789000            0    3507.9191    3507.9191
12790000            0    3500.7304    3500.7304
12791000            0    3478.4043    3478.4043
12792000            0    3469.0458    3469.0458
12793000            0    3472.0854    3472.0854
12794000            0    3467.1431    3467.1431
12795000            0    3461.1309    3461.1309
12796000            0    3453.9135    3453.9135
12797000            0    3453.4554    3453.4554
12798000            0    3455.4595    3455.4595
12799000            0    3434.3044    3434.3044
12800000            0    3429.4213    3429.4213
12801000            0     3407.722     3407.722
12802000            0    3402.1281    3402.1281
12803000            0    3410.2631    3410.2631
12804000            0    3418.2507    3418.2507
12805000            0    3421.5682    3421.5682
12806000            0    3409.3748    3409.3748
12807000            0    3391.2059    3391.2059
12808000            0     3376.228     3376.228
12809000            0    3373.8489    3373.8489
12810000            0    3365.3043    3365.3043
12811000            0    3350.4728    3350.4728
12812000            0    3321.4778    3321.4778
12813000            0    3312.2917    3312.2917
12814000            0     3304.904     3304.904
12815000            0    3274.8194    3274.8194
12816000            0    3260.7097    3260.7097
12817000            0    3243.7784    3243.7784
12818000            0    3221.5624    3221.5624
12819000            0    3203.7646    3203.7646
12820000            0    3205.9409    3205.9409
12821000            0    3199.7454    3199.7454
12822000            0    3174.9443    3174.9443
12823000            0    3152.8144    3152.8144
12824000            0    3150.4644    3150.4644
12825000            0    3114.5537    3114.5537
12826000            0    3107.1422    3107.1422
12827000            0    3096.5347    3096.5347
12828000            0    3082.4065    3082.4065
12829000            0    3081.2774    3081.2774
12830000            0    3069.4711    3069.4711
12831000            0    3052.4454    3052.4454
12832000            0    3041.1713    3041.1713
12833000            0    3030.6742    3030.6742
12834000            0    3028.6498    3028.6498
12835000            0    3013.9036    3013.9036
12836000            0    2989.3992    2989.3992
12837000            0    2973.7248    2973.7248
12838000            0    2969.3574    2969.3574
12839000            0    2971.6195    2971.6195
12840000            0    2957.2889    2957.2889
12841000            0    2926.4726    2926.4726
12842000            0    2919.9142    2919.9142
12843000            0     2907.052     2907.052
12844000            0    2901.7736    2901.7736
12845000            0    2876.8805    2876.8805
12846000            0    2852.9528    2852.9528
12847000            0    2838.1969    2838.1969
12848000            0    2840.8035    2840.8035
12849000            0    2833.6966    2833.6966
12850000            0    2833.5873    2833.5873
12851000            0    2828.7024    2828.7024
12852000            0    2825.2642    2825.2642
12853000            0    2812.1512    2812.1512
12854000            0    2781.0818    2781.0818
12855000            0    2774.3964    2774.3964
12856000            0    2760.7149    2760.7149
12857000            0    2746.7799    2746.7799
12858000            0    2738.7393    2738.7393
12859000            0    2718.8297    2718.8297
12860000            0    2716.8356    2716.8356
12861000            0    2676.9231    2676.9231
12862000            0    2670.8085    2670.8085
12863000            0    2633.9872    2633.9872
12864000            0    2616.4043    2616.4043
12865000            0    2612.6308    2612.6308
12866000            0    2599.1064    2599.1064
12867000            0    2577.6461    2577.6461
12868000            0    2572.4622    2572.4622
12869000            0    2555.9027    2555.9027
12870000            0    2523.6597    2523.6597
12871000            0     2510.176     2510.176
12872000            0    2503.9587    2503.9587
12873000            0    2501.1278    2501.1278
12874000            0    2484.5142    2484.5142
12875000            0    2471.4728    2471.4728
12876000            0    2453.3002    2453.3002
12877000            0    2449.8167    2449.8167
12878000            0    2446.4238    2446.4238
12879000            0    2404.7937    2404.7937
12880000            0     2403.815     2403.815
12881000            0    2387.5899    2387.5899
12882000            0      2366.06      2366.06
12883000            0    2351.7551    2351.7551
12884000            0    2348.9947    2348.9947
12885000            0    2339.2306    2339.2306
12886000            0    2312.2439    2312.2439
12887000            0    2310.8071    2310.8071
12888000            0    2295.0454    2295.0454
12889000            0    2263.8275    2263.8275
12890000            0    2242.4784    2242.4784
12891000            0    2231.5812    2231.5812
12892000            0    2220.3258    2220.3258
12893000            0    2198.4194    2198.4194
12894000            0    2181.6729    2181.6729
12895000            0    2156.8014    2156.8014
12896000            0    2134.5178    2134.5178
12897000            0    2129.9449    2129.9449
12898000            0    2078.1963    2078.1963
12899000            0    2047.2158    2047.2158
12900000            0    2033.4722    2033.4722
12901000            0    2020.5207    2020.5207
12902000            0     2011.115     2011.115
12903000            0    2000.6629    2000.6629
12904000            0    1973.2214    1973.2214
12905000            0    1966.0479    1966.0479
12906000            0    1959.6357    1959.6357
12907000            0    1944.9632    1944.9632
12908000            0    1910.9763    1910.9763
12909000            0    1905.1504    1905.1504
12910000            0    1896.4273    1896.4273
12911000            0    1883.4433    1883.4433
12912000            0    1871.5692    1871.5692
12913000            0    1836.8305    1836.8305
12914000            0    1808.0405    1808.0405
12915000            0    1789.1233    1789.1233
12916000            0    1782.4026    1782.4026
12917000            0    1767.9217    1767.9217
12918000            0    1725.6618    1725.6618
12919000            0     1686.195     1686.195
12920000            0    1676.7053    1676.7053
12921000            0    1672.9532    1672.9532
12922000            0    1662.4415    1662.4415
12923000            0    1647.7283    1647.7283
12924000            0    1634.1871    1634.1871
12925000            0    1628.2284    1628.2284
12926000            0    1610.2886    1610.2886
12927000            0    1605.4818    1605.4818
12928000            0     1595.589     1595.589
12929000            0    1570.7904    1570.7904
12930000            0    1526.4707    1526.4707
12931000            0    1518.6347    1518.6347
12932000            0    1504.8691    1504.8691
12933000            0    1493.9572    1493.9572
12934000            0    1483.7329    1483.7329
12935000            0    1476.2118    1476.2118
12936000            0    1468.4095    1468.4095
12937000            0    1457.4807    1457.4807
12938000            0    1431.2202    1431.2202
12939000            0    1412.0682    1412.0682
12940000            0     1391.031     1391.031
12941000            0    1362.6481    1362.6481
12942000            0    1346.3507    1346.3507
12943000            0    1325.5783    1325.5783
12944000            0    1314.4656    1314.4656
12945000            0    1291.4767    1291.4767
12946000            0    1259.5928    1259.5928
12947000            0     1232.998     1232.998
12948000            0    1219.9063    1219.9063
12949000            0    1207.0631    1207.0631
12950000            0    1180.7912    1180.7912
12951000            0     1172.541     1172.541
12952000            0    1144.4257    1144.4257
12953000            0    1129.0169    1129.0169
12954000            0    1101.7288    1101.7288
12955000            0     1077.399     1077.399
12956000            0    1063.2388    1063.2388
12957000            0    1056.1712    1056.1712
12958000            0    1035.5344    1035.5344
12959000            0    996.36538    996.36538
12960000            0    979.86001    979.86001
12961000            0    964.01358    964.01358
12962000            0    961.19113    961.19113
12963000            0    941.87271    941.87271
12964000            0    921.72937    921.72937
12965000            0    900.83616    900.83616
12966000            0    862.46964    862.46964
12967000            0    829.97699    829.97699
12968000            0    808.70427    808.70427
12969000            0    781.28487    781.28487
12970000            0    732.39671    732.39671
12971000            0      715.225      715.225
12972000            0    697.61429    697.61429
12973000            0    677.46895    677.46895
12974000            0    677.04769    677.04769
12975000            0    666.88462    666.88462
12976000            0    648.18239    648.18239
12977000            0    620.89293    620.89293
12978000            0    617.59945    617.59945
12979000            0    595.75348    595.75348
12980000            0    562.57668    562.57668
12981000            0    538.18526    538.18526
12982000            0    531.35891    531.35891
12983000            0    526.06227    526.06227
12984000            0    504.55362    504.55362
12985000            0    474.06228    474.06228
12986000            0    465.95629    465.95629
12987000            0     458.6115     458.6115
12988000            0    448.24762    448.24762
12989000            0    442.81883    442.81883
12990000            0    431.14225    431.14225
12991000            0    416.61739    416.61739
12992000            0    392.60403    392.60403
12993000            0    367.75006    367.75006
12994000            0    360.45504    360.45504
12995000            0    352.08539    352.08539
12996000            0    346.64578    346.64578
12997000            0    335.73507    335.73507
12998000            0    317.80333    317.80333
12999000            0    311.30839    311.30839
13000000            0    296.08992    296.08992
13001000            0    286.43359    286.43359
13002000            0    281.75067    281.75067
13003000            0    268.41869    268.41869
13004000            0    262.24603    262.24603
13005000            0    258.02769    258.02769
13006000            0     262.3951     262.3951
13007000            0    255.03483    255.03483
13008000            0    246.37461    246.37461
13009000            0    239.41757    239.41757
13010000            0    235.31519    235.31519
13011000            0    233.57771    233.57771
13012000            0    230.08333    230.08333
13013000            0     221.9253     221.9253
13014000            0    217.72494    217.72494
13015000            0    216.35217    216.35217
13016000            0    215.41496    215.41496
13017000            0     214.3809     214.3809
13018000            0    207.20518    207.20518
13019000            0    203.21074    203.21074
13020000            0    200.43721    200.43721
13021000            0    197.52102    197.52102
13022000            0    195.81334    195.81334
13023000            0    193.43265    193.43265
13024000            0    190.47616    190.47616
13025000            0    181.00527    181.00527
13026000            0    179.68622    179.68622
13027000            0    177.47389    177.47389
13028000            0    173.25295    173.25295
13029000            0    171.10407    171.10407
13030000            0    168.20972    168.20972
13031000            0    162.23454    162.23454
13032000            0     159.6405     159.6405
13033000            0    157.19144    157.19144
13034000            0     156.3888     156.3888
13035000            0    153.42486    153.42486
13036000            0    150.55148    150.55148
13037000            0    149.75654    149.75654
13038000            0    148.78883    148.78883
13039000            0    147.28185    147.28185
13040000            0     142.2583     142.2583
13041000            0    141.58696    141.58696
13042000            0    141.54033    141.54033
13043000            0    139.01284    139.01284
13044000            0    137.64465    137.64465
13045000            0    136.57918    136.57918
13046000            0    135.48285    135.48285
13047000            0     133.7032     133.7032
13048000            0    133.05253    133.05253
13049000            0    132.69491    132.69491
13050000            0    131.67505    131.67505
13051000            0    130.57005    130.57005
13052000            0    129.38085    129.38085
13053000            0    128.23863    128.23863
13054000            0    126.74079    126.74079
13055000            0    125.57276    125.57276
13056000            0    124.95317    124.95317
13057000            0    124.22985    124.22985
13058000            0    123.72944    123.72944
13059000            0    122.90931    122.90931
13060000            0    121.20266    121.20266
13061000            0    120.53055    120.53055
13062000            0       120.12       120.12
13063000            0    119.81888    119.81888
13064000            0    119.59567    119.59567
13065000            0    118.83065    118.83065
13066000            0    117.76205    117.76205
13067000            0    117.48586    117.48586
13068000            0    117.21479    117.21479
13069000            0    116.92152    116.92152
13070000            0    116.42461    116.42461
13071000            0    116.07382    116.07382
13072000            0    115.79307    115.79307
13073000            0    115.53287    115.53287
13074000            0    115.17265    115.17265
13075000            0    114.63418    114.63418
13076000            0     114.2252     114.2252
13077000            0    113.91449    113.91449
13078000            0    113.60301    113.60301
13079000            0      113.114      113.114
13080000            0    112.79633    112.79633
13081000            0    112.37945    112.37945
13082000            0    112.06865    112.06865
13083000            0    111.81275    111.81275
13084000            0     111.3474     111.3474
13085000            0    111.09644    111.09644
13086000            0    108.43781    108.43781
13087000            0    107.81674    107.81674
13088000            0    107.05846    107.05846
13089000            0    106.87202    106.87202
13090000            0    106.88996    106.88996
13091000            0    106.02175    106.02175
13092000            0    105.17184    105.17184
13093000            0    104.49625    104.49625
13094000            0    103.93646    103.93646
13095000            0    102.95678    102.95678
13096000            0    102.77475    102.77475
13097000            0    101.74467    101.74467
13098000            0    101.42754    101.42754
13099000            0     101.2537     101.2537
13100000            0    100.27729    100.27729
13101000            0    99.838108    99.838108
13102000            0    98.958417    98.958417
13103000            0    98.683029    98.683029
13104000            0    97.274138    97.274138
13105000            0    96.790132    96.790132
13106000            0    96.362385    96.362385
13107000            0    96.078238    96.078238
13108000            0     95.41127     95.41127
13109000            0    95.146317    95.146317
13110000            0    94.935125    94.935125
13111000            0    94.633085    94.633085
13112000            0    93.227916    93.227916
13113000            0    92.677976    92.677976
13114000            0    92.563289    92.563289
13115000            0     92.50141     92.50141
13116000            0    91.567296    91.567296
13117000            0    91.266098    91.266098
13118000            0     90.70733     90.70733
13119000            0    90.491843    90.491843
13120000            0    90.287902    90.287902
13121000            0    90.101866    90.101866
13122000            0    89.938903    89.938903
13123000            0    89.804244    89.804244
13124000            0    89.693389    89.693389
13125000            0    89.592402    89.592402
13126000            0    89.488784    89.488784
13127000            0    89.260131    89.260131
13128000            0    89.005928    89.005928
13129000            0    88.493363    88.493363
13130000            0    88.051826    88.051826
13131000            0    87.735203    87.735203
13132000            0    87.651173    87.651173
13133000            0     87.63806     87.63806
13134000            0    87.627606    87.627606
13135000            0    87.508188    87.508188
13136000            0    87.294359    87.294359
13137000            0    87.084479    87.084479
13138000            0    86.872862    86.872862
13139000            0    86.689012    86.689012
13140000            0    86.477262    86.477262
13141000            0    86.343312    86.343312
13142000            0    86.224599    86.224599
13143000            0     85.98518     85.98518
13144000            0      85.6418      85.6418
13145000            0    84.762067    84.762067
13146000            0    84.447819    84.447819
13147000            0     84.18122     84.18122
13148000            0    83.949638    83.949638
13149000            0    83.731367    83.731367
13150000            0    83.667623    83.667623
13151000            0    83.484077    83.484077
13152000            0    83.032458    83.032458
13153000            0    82.772948    82.772948
13154000            0     81.95678     81.95678
13155000            0    81.984063    81.984063
13156000            0    81.961438    81.961438
13157000            0    81.792616    81.792616
13158000            0    81.545753    81.545753
13159000            0    81.060035    81.060035
13160000            0    80.861746    80.861746
13161000            0    80.663198    80.663198
13162000            0    80.307664    80.307664
13163000            0    80.053267    80.053267
13164000            0    79.824278    79.824278
13165000            0    79.672906    79.672906
13166000            0    79.576851    79.576851
13167000            0    79.157798    79.157798
13168000            0    78.759164    78.759164
13169000            0    78.572418    78.572418
13170000            0    77.804724    77.804724
13171000            0    77.327765    77.327765
13172000            0    76.944397    76.944397
13173000            0    76.776657    76.776657
13174000            0    76.682948    76.682948
13175000            0    76.514969    76.514969
13176000            0    76.419596    76.419596
13177000            0    76.317375    76.317375
13178000            0      76.1798      76.1798
13179000            0    76.057651    76.057651
13180000            0    75.777364    75.777364
13181000            0    75.531707    75.531707
13182000            0    75.304513    75.304513
13183000            0    74.951093    74.951093
13184000            0    74.832736    74.832736
13185000            0    74.467888    74.467888
13186000            0    74.211035    74.211035
13187000            0    73.994454    73.994454
13188000            0     73.96929     73.96929
13189000            0    73.784037    73.784037
13190000            0    73.656073    73.656073
13191000            0    73.578277    73.578277
13192000            0    73.489897    73.489897
13193000            0    73.327025    73.327025
13194000            0    73.231768    73.231768
13195000            0    72.920586    72.920586
13196000            0    72.815206    72.815206
13197000            0    72.493959    72.493959
13198000            0    72.414213    72.414213
13199000            0    72.337612    72.337612
13200000            0    71.534994    71.534994
13201000            0     71.32251     71.32251
13202000            0     71.20175     71.20175
13203000            0    71.112115    71.112115
13204000            0    71.049104    71.049104
13205000            0    70.840396    70.840396
13206000            0    70.691345    70.691345
13207000            0    70.630597    70.630597
13208000            0    70.584722    70.584722
13209000            0    70.383401    70.383401
13210000            0    70.229226    70.229226
13211000            0    70.078992    70.078992
13212000            0    69.153179    69.153179
13213000            0    69.103987    69.103987
13214000            0    69.059261    69.059261
13215000            0     68.74625     68.74625
13216000            0    68.511377    68.511377
13217000            0    68.370178    68.370178
13218000            0     68.21601     68.21601
13219000            0    67.507716    67.507716
13220000            0    67.306071    67.306071
13221000            0    66.953027    66.953027
13222000            0    66.095344    66.095344
13223000            0    65.922423    65.922423
13224000            0    65.808853    65.808853
13225000            0    65.670946    65.670946
13226000            0    65.554164    65.554164
13227000            0    65.313364    65.313364
13228000            0    65.224846    65.224846
13229000            0    65.137562    65.137562
13230000            0     65.13686     65.13686
13231000            0    65.143439    65.143439
13232000            0    65.069259    65.069259
13233000            0    64.462736    64.462736
13234000            0    63.565715    63.565715
13235000            0    63.601538    63.601538
13236000            0    64.047838    64.047838
13237000            0    64.247073    64.247073
13238000            0     64.20267     64.20267
13239000            0    63.664847    63.664847
13240000            0    63.440482    63.440482
13241000            0    63.145716    63.145716
13242000            0    63.110132    63.110132
13243000            0    63.220027    63.220027
13244000            0    63.090953    63.090953
13245000            0    62.958945    62.958945
13246000            0    62.913926    62.913926
13247000            0    62.893776    62.893776
13248000            0    62.840712    62.840712
13249000            0    62.780893    62.780893
13250000            0    62.598838    62.598838
13251000            0    62.488343    62.488343
13252000            0    62.309745    62.309745
13253000            0    61.961825    61.961825
13254000            0    61.885786    61.885786
13255000            0    61.862786    61.862786
13256000            0    61.854227    61.854227
13257000            0    61.755801    61.755801
13258000            0    61.729288    61.729288
13259000            0    61.671772    61.671772
13260000            0    61.650337    61.650337
13261000            0    61.438906    61.438906
13262000            0    61.280109    61.280109
13263000            0    61.127732    61.127732
13264000            0    61.055069    61.055069
13265000            0    61.016439    61.016439
13266000            0    60.992058    60.992058
13267000            0    60.940114    60.940114
13268000            0    60.892286    60.892286
13269000            0    60.807205    60.807205
13270000            0    60.605298    60.605298
13271000            0    60.421213    60.421213
13272000            0    60.395766    60.395766
13273000            0    60.421507    60.421507
13274000            0    60.360178    60.360178
13275000            0    60.222813    60.222813
13276000            0    59.964658    59.964658
13277000            0    59.845207    59.845207
13278000            0     59.66535     59.66535
13279000            0    59.399555    59.399555
13280000            0    59.250857    59.250857
13281000            0    59.154848    59.154848
13282000            0    59.171559    59.171559
13283000            0    59.076914    59.076914
13284000            0    58.689289    58.689289
13285000            0    58.581544    58.581544
13286000            0     58.72592     58.72592
13287000            0    58.744603    58.744603
13288000            0    58.707538    58.707538
13289000            0    58.647693    58.647693
13290000            0    58.614689    58.614689
13291000            0    58.591475    58.591475
13292000            0    58.587251    58.587251
13293000            0    58.568522    58.568522
13294000            0    58.307866    58.307866
13295000            0    56.952037    56.952037
13296000            0    56.892534    56.892534
13297000            0     56.78459     56.78459
13298000            0    56.468793    56.468793
13299000            0    56.090886    56.090886
13300000            0    56.031597    56.031597
13301000            0    56.074385    56.074385
13302000            0     56.36029     56.36029
13303000            0    56.390696    56.390696
13304000            0    56.311422    56.311422
13305000            0    56.297502    56.297502
13306000            0    56.292801    56.292801
13307000            0    56.271623    56.271623
13308000            0    56.067866    56.067866
13309000            0    56.055488    56.055488
13310000            0    55.822784    55.822784
13311000            0    55.842828    55.842828
13312000            0    55.732026    55.732026
13313000            0       55.778       55.778
13314000            0    55.760227    55.760227
13315000            0    55.788116    55.788116
13316000            0    55.727161    55.727161
13317000            0    55.466131    55.466131
13318000            0    54.999109    54.999109
13319000            0    54.819766    54.819766
13320000            0     54.77826     54.77826
13321000            0    54.726303    54.726303
13322000            0    54.609791    54.609791
13323000            0    54.619916    54.619916
13324000            0    54.288081    54.288081
13325000            0     54.33992     54.33992
13326000            0    54.264631    54.264631
13327000            0     54.11982     54.11982
13328000            0    53.760612    53.760612
13329000            0    53.649589    53.649589
13330000            0    53.464519    53.464519
13331000            0    53.428765    53.428765
13332000            0    53.043818    53.043818
13333000            0    52.965794    52.965794
13334000            0    52.507241    52.507241
13335000            0    52.443872    52.443872
13336000            0    51.952463    51.952463
13337000            0    52.063505    52.063505
13338000            0    51.822289    51.822289
13339000            0    51.631772    51.631772
13340000            0    51.607858    51.607858
13341000            0    51.372683    51.372683
13342000            0     51.06973     51.06973
13343000            0    51.012765    51.012765
13344000            0    50.976905    50.976905
13345000            0    50.865905    50.865905
13346000            0    50.843423    50.843423
13347000            0    50.866795    50.866795
13348000            0    50.904737    50.904737
13349000            0    50.909559    50.909559
13350000            0    50.956266    50.956266
13351000            0    50.814798    50.814798
13352000            0    50.872381    50.872381
13353000            0    50.910804    50.910804
13354000            0    50.941367    50.941367
13355000            0    50.890888    50.890888
13356000            0    50.218076    50.218076
13357000            0    50.022653    50.022653
13358000            0    49.312796    49.312796
13359000            0    49.245682    49.245682
13360000            0    49.345151    49.345151
13361000            0    49.487235    49.487235
13362000            0    49.607326    49.607326
13363000            0    49.336455    49.336455
13364000            0    49.126611    49.126611
13365000            0    49.129659    49.129659
13366000            0    49.095226    49.095226
13367000            0    49.057904    49.057904
13368000            0    49.018781    49.018781
13369000            0    48.745962    48.745962
13370000            0    48.711825    48.711825
13371000            0    48.718759    48.718759
13372000            0     48.71585     48.71585
13373000            0    48.749964    48.749964
13374000            0    48.531887    48.531887
13375000            0    48.491938    48.491938
13376000            0      48.4958      48.4958
13377000            0    48.533493    48.533493
13378000            0    48.488252    48.488252
13379000            0     48.18808     48.18808
13380000            0    47.950781    47.950781
13381000            0    47.905363    47.905363
13382000            0    47.922256    47.922256
13383000            0    47.772603    47.772603
13384000            0    47.721887    47.721887
13385000            0    47.846179    47.846179
13386000            0    48.029289    48.029289
13387000            0    48.114088    48.114088
13388000            0    48.134711    48.134711
13389000            0    48.144449    48.144449
13390000            0    48.175141    48.175141
13391000            0    48.180062    48.180062
13392000            0    48.185899    48.185899
13393000            0     48.19061     48.19061
13394000            0    48.105593    48.105593
13395000            0    48.112004    48.112004
13396000            0    47.759496    47.759496
13397000            0    47.734533    47.734533
13398000            0    45.689894    45.689894
13399000            0    45.684463    45.684463
13400000            0     45.73973     45.73973
13401000            0    45.541085    45.541085
13402000            0    45.625247    45.625247
13403000            0    44.565503    44.565503
13404000            0    44.383182    44.383182
13405000            0    44.398544    44.398544
13406000            0    44.412181    44.412181
13407000            0    44.436375    44.436375
13408000            0    44.478139    44.478139
13409000            0    44.530445    44.530445
13410000            0    44.539336    44.539336
13411000            0     44.42972     44.42972
13412000            0    44.472922    44.472922
13413000            0    44.516776    44.516776
13414000            0    44.553524    44.553524
13415000            0    44.596711    44.596711
13416000            0    44.515832    44.515832
13417000            0    44.522158    44.522158
13418000            0    44.542504    44.542504
13419000            0    44.484766    44.484766
13420000            0    44.505431    44.505431
13421000            0    44.545662    44.545662
13422000            0    44.471506    44.471506
13423000            0    44.422677    44.422677
13424000            0    44.277087    44.277087
13425000            0    44.276853    44.276853
13426000            0    43.303598    43.303598
13427000            0    43.287495    43.287495
13428000            0    43.363572    43.363572
13429000            0    43.376128    43.376128
13430000            0    43.373245    43.373245
13431000            0    43.414264    43.414264
13432000            0    43.386032    43.386032
13433000            0    43.471167    43.471167
13434000            0    43.560292    43.560292
13435000            0    43.255339    43.255339
13436000            0    43.260289    43.260289
13437000            0    43.327618    43.327618
13438000            0    43.227739    43.227739
13439000            0    43.306716    43.306716
13440000            0     43.38506     43.38506
13441000            0    43.459963    43.459963
13442000            0     43.51691     43.51691
13443000            0    43.569848    43.569848
13444000            0    43.584403    43.584403
13445000            0    43.455268    43.455268
13446000            0    43.347765    43.347765
13447000            0    43.387798    43.387798
13448000            0    43.498437    43.498437
13449000            0    43.605788    43.605788
13450000            0    43.571556    43.571556
13451000            0    43.601367    43.601367
13452000            0    43.635869    43.635869
13453000            0    43.624851    43.624851
13454000            0    43.637209    43.637209
13455000            0    43.673067    43.673067
13456000            0    43.681245    43.681245
13457000            0    43.700102    43.700102
13458000            0    43.395186    43.395186
13459000            0    43.329513    43.329513
13460000            0    43.284002    43.284002
13461000            0    43.338977    43.338977
13462000            0    43.476626    43.476626
13463000            0    43.640198    43.640198
13464000            0    43.752614    43.752614
13465000            0    43.830127    43.830127
13466000            0    43.817136    43.817136
13467000            0    43.817816    43.817816
13468000            0    43.840959    43.840959
13469000            0    43.887481    43.887481
13470000            0    43.532162    43.532162
13471000            0    43.349359    43.349359
13472000            0    43.418607    43.418607
13473000            0    43.304527    43.304527
13474000            0    43.403379    43.403379
13475000            0    42.924734    42.924734
13476000            0    42.973455    42.973455
13477000            0    43.028731    43.028731
13478000            0    43.089093    43.089093
13479000            0    42.964906    42.964906
13480000            0    43.066468    43.066468
13481000            0    43.177875    43.177875
13482000            0     43.29152     43.29152
13483000            0    43.397786    43.397786
13484000            0    43.509081    43.509081
13485000            0    43.510726    43.510726
13486000            0    43.462669    43.462669
13487000            0    43.364797    43.364797
13488000            0    43.370347    43.370347
13489000            0    43.413647    43.413647
13490000            0    43.137879    43.137879
13491000            0    42.965258    42.965258
13492000            0    43.148124    43.148124
13493000            0    43.070436    43.070436
13494000            0    42.898002    42.898002
13495000            0    42.980069    42.980069
13496000            0    43.059231    43.059231
13497000            0    42.807306    42.807306
13498000            0    42.835192    42.835192
13499000            0    42.466765    42.466765
13500000            0    42.521292    42.521292
13501000            0    42.312653    42.312653
13502000            0    42.370041    42.370041
13503000            0    42.472001    42.472001
13504000            0    42.573633    42.573633
13505000            0    42.680368    42.680368
13506000            0    42.741348    42.741348
13507000            0    42.512405    42.512405
13508000            0    42.560033    42.560033
13509000            0    42.638484    42.638484
13510000            0    42.724158    42.724158
13511000            0     42.80496     42.80496
13512000            0    42.757381    42.757381
13513000            0    41.275928    41.275928
13514000            0    41.342706    41.342706
13515000            0    41.594733    41.594733
13516000            0    41.619919    41.619919
13517000            0     41.64224     41.64224
13518000            0    41.625145    41.625145
13519000            0     41.42915     41.42915
13520000            0    41.204508    41.204508
13521000            0    40.837228    40.837228
13522000            0    41.166117    41.166117
13523000            0    41.427007    41.427007
13524000            0    41.478786    41.478786
13525000            0    41.556168    41.556168
13526000            0    41.490156    41.490156
13527000            0    41.604158    41.604158
13528000            0    41.746156    41.746156
13529000            0    41.811081    41.811081
13530000            0     41.85756     41.85756
13531000            0    41.634334    41.634334
13532000            0    41.547605    41.547605
13533000            0    41.630196    41.630196
13534000            0    41.528655    41.528655
13535000            0    41.593025    41.593025
13536000            0    41.587448    41.587448
13537000            0    41.493883    41.493883
13538000            0    41.239631    41.239631
13539000            0    41.264052    41.264052
13540000            0    41.511558    41.511558
13541000            0    41.424576    41.424576
13542000            0    41.500626    41.500626
13543000            0    41.563161    41.563161
13544000            0    41.591646    41.591646
13545000            0    41.557632    41.557632
13546000            0    41.526429    41.526429
13547000            0    41.575176    41.575176
13548000            0    41.720664    41.720664
13549000            0     41.67313     41.67313
13550000            0    41.845956    41.845956
13551000            0    41.860015    41.860015
13552000            0    41.751994    41.751994
13553000            0    41.612119    41.612119
13554000            0    41.608258    41.608258
13555000            0    40.643624    40.643624
13556000            0     40.70201     40.70201
13557000            0    40.729596    40.729596
13558000            0    40.894672    40.894672
13559000            0    40.863621    40.863621
13560000            0    40.832621    40.832621
13561000            0    40.856966    40.856966
13562000            0    40.880726    40.880726
13563000            0    40.898484    40.898484
13564000            0    40.826723    40.826723
13565000            0    40.928861    40.928861
13566000            0      40.9607      40.9607
13567000            0    41.046015    41.046015
13568000            0    41.102381    41.102381
13569000            0    41.166897    41.166897
13570000            0    41.236356    41.236356
13571000            0    40.834336    40.834336
13572000            0    40.861943    40.861943
13573000            0    40.880301    40.880301
13574000            0    40.859359    40.859359
13575000            0    39.978581    39.978581
13576000            0    39.966418    39.966418
13577000            0    39.403234    39.403234
13578000            0    39.358032    39.358032
13579000            0     39.41712     39.41712
13580000            0    39.405437    39.405437
13581000            0    39.468998    39.468998
13582000            0    39.572796    39.572796
13583000            0    39.631353    39.631353
13584000            0    39.529391    39.529391
13585000            0    39.419579    39.419579
13586000            0    39.614023    39.614023
13587000            0    39.796009    39.796009
13588000            0    39.950173    39.950173
13589000            0    39.720077    39.720077
13590000            0    39.643398    39.643398
13591000            0    37.781787    37.781787
13592000            0    37.310748    37.310748
13593000            0    36.974446    36.974446
13594000            0    37.279987    37.279987
13595000            0    37.778331    37.778331
13596000            0    37.984494    37.984494
13597000            0    37.845811    37.845811
13598000            0    37.645026    37.645026
13599000            0    37.623922    37.623922
[...]
15043000            0    3.4714577    3.4714577
15044000            0    3.4754935    3.4754935
15045000            0    3.4799402    3.4799402
15046000            0    3.4841184    3.4841184
15047000            0    3.4891182    3.4891182
15048000            0    3.4944125    3.4944125
15049000            0    3.5008373    3.5008373
15050000            0     3.508354     3.508354
15051000            0    3.5113678    3.5113678
15052000            0    3.5171181    3.5171181
15053000            0    3.5227946    3.5227946
15054000            0    3.5298532    3.5298532
15055000            0    3.5388604    3.5388604
15056000            0    3.5499646    3.5499646
15057000            0    3.5629749    3.5629749
15058000            0    3.5771769    3.5771769
15059000            0    3.5918132    3.5918132
15060000            0    3.6033871    3.6033871
15061000            0    3.6111738    3.6111738
15062000            0    3.6163854    3.6163854
15063000            0    3.6209157    3.6209157
15064000            0    3.6254759    3.6254759
15065000            0    3.6271548    3.6271548
15066000            0    3.5815929    3.5815929
15067000            0    3.5926688    3.5926688
15068000            0    3.5906784    3.5906784
15069000            0    3.5915348    3.5915348
15070000            0    3.5925347    3.5925347
15071000            0    3.5938262    3.5938262
15072000            0    3.5978507    3.5978507
15073000            0    3.6050098    3.6050098
15074000            0     3.614375     3.614375
15075000            0    3.6251473    3.6251473
15076000            0    3.6360653    3.6360653
15077000            0    3.6416663    3.6416663
15078000            0    3.6413403    3.6413403
15079000            0    3.6486797    3.6486797
15080000            0    3.6656094    3.6656094
15081000            0    3.6866701    3.6866701
15082000            0    3.7061088    3.7061088
15083000            0    3.7218819    3.7218819
15084000            0    3.7186175    3.7186175
15085000            0    3.7352626    3.7352626
15086000            0    3.7523293    3.7523293
15087000            0    3.7688457    3.7688457
15088000            0    3.7854209    3.7854209
15089000            0    3.8023902    3.8023902
15090000            0    3.8197572    3.8197572
15091000            0    3.8367773    3.8367773
15092000            0    3.8512317    3.8512317
15093000            0    3.8629731    3.8629731
15094000            0    3.8714991    3.8714991
15095000            0    3.7688708    3.7688708
15096000            0    3.7686345    3.7686345
15097000            0    3.7692543    3.7692543
15098000            0    3.7691777    3.7691777
15099000            0    3.7549494    3.7549494
15100000            0    3.6432181    3.6432181
15101000            0    2.8749107    2.8749107
15102000            0    2.3009241    2.3009241
15103000            0    2.8133648    2.8133648
15104000            0    3.4106166    3.4106166
15105000            0    3.3111857    3.3111857
15106000            0    3.1312871    3.1312871
15107000            0    3.0472209    3.0472209
15108000            0    3.0537955    3.0537955
15109000            0    3.0801147    3.0801147
15110000            0    3.0736423    3.0736423
15111000            0    3.0198701    3.0198701
15112000            0    2.8735291    2.8735291
15113000            0    2.8662932    2.8662932
15114000            0    2.9017328    2.9017328
15115000            0    2.9470805    2.9470805
15116000            0    2.9800137    2.9800137
15117000            0    3.0036172    3.0036172
15118000            0     3.047118     3.047118
15119000            0    3.0436277    3.0436277
15120000            0    2.9690247    2.9690247
15121000            0    2.7299672    2.7299672
15122000            0    2.7179903    2.7179903
15123000            0    2.7025284    2.7025284
15124000            0    2.6800712    2.6800712
15125000            0    2.6623234    2.6623234
15126000            0     2.643609     2.643609
15127000            0    2.5237422    2.5237422
15128000            0    2.5002607    2.5002607
15129000            0    2.4723664    2.4723664
15130000            0    2.4594866    2.4594866
15131000            0    2.4510963    2.4510963
15132000            0    2.4452372    2.4452372
15133000            0    2.4405865    2.4405865
15134000            0    2.4364333    2.4364333
15135000            0    2.4299547    2.4299547
15136000            0    2.4236636    2.4236636
15137000            0     2.416077     2.416077
15138000            0    2.3130408    2.3130408
15139000            0    2.3028353    2.3028353
15140000            0    2.2946113    2.2946113
15141000            0      2.28764      2.28764
15142000            0    2.2816698    2.2816698
15143000            0    2.2768048    2.2768048
15144000            0    2.2722715    2.2722715
15145000            0    2.2680982    2.2680982
15146000            0    2.2641193    2.2641193
15147000            0    2.2605192    2.2605192
15148000            0    2.2561898    2.2561898
15149000            0    2.2531635    2.2531635
15150000            0    2.2516159    2.2516159
15151000            0    2.2516801    2.2516801
15152000            0    2.2517241    2.2517241
15153000            0     2.250916     2.250916
15154000            0    2.2551891    2.2551891
15155000            0    2.2456123    2.2456123
15156000            0    2.2306166    2.2306166
15157000            0    2.2275845    2.2275845
15158000            0    2.1909825    2.1909825
15159000            0    2.1610283    2.1610283
15160000            0    2.1632816    2.1632816
15161000            0    2.1653894    2.1653894
15162000            0     2.166895     2.166895
15163000            0    2.1677924    2.1677924
15164000            0    2.1652618    2.1652618
15165000            0    2.1657986    2.1657986
15166000            0    2.1669067    2.1669067
15167000            0    2.1687773    2.1687773
15168000            0    2.1718477    2.1718477
15169000            0    2.1736276    2.1736276
15170000            0    2.1781193    2.1781193
15171000            0    2.1833371    2.1833371
15172000            0     2.188578     2.188578
15173000            0    2.1920544    2.1920544
15174000            0    2.1885269    2.1885269
15175000            0    2.1837444    2.1837444
15176000            0    2.1739993    2.1739993
15177000            0    2.1606817    2.1606817
15178000            0    2.1457523    2.1457523
15179000            0     2.132092     2.132092
15180000            0    2.1231875    2.1231875
15181000            0    2.1353754    2.1353754
15182000            0    2.1504059    2.1504059
15183000            0    2.1662345    2.1662345
15184000            0    2.1775892    2.1775892
15185000            0    2.1810963    2.1810963
15186000            0    2.1810211    2.1810211
15187000            0    2.1775739    2.1775739
15188000            0    2.1623973    2.1623973
15189000            0    2.1627546    2.1627546
15190000            0    2.1647025    2.1647025
15191000            0    2.1673969    2.1673969
15192000            0    2.1709445    2.1709445
15193000            0    2.1731533    2.1731533
15194000            0    2.1742273    2.1742273
15195000            0    2.1753483    2.1753483
15196000            0    2.1779846    2.1779846
15197000            0    2.1826211    2.1826211
15198000            0    2.1878757    2.1878757
15199000            0    2.1834051    2.1834051
15200000            0    2.1891132    2.1891132
15201000            0    2.1926449    2.1926449
15202000            0    2.1383174    2.1383174
15203000            0    2.1390806    2.1390806
15204000            0     2.141806     2.141806
15205000            0    2.1454276    2.1454276
15206000            0    2.1494154    2.1494154
15207000            0    2.1527943    2.1527943
15208000            0    2.1550803    2.1550803
15209000            0    2.1572462    2.1572462
15210000            0    2.1592043    2.1592043
15211000            0    2.1530576    2.1530576
15212000            0    2.1563934    2.1563934
15213000            0    2.1613381    2.1613381
15214000            0    2.1635957    2.1635957
15215000            0    2.1698178    2.1698178
15216000            0    2.1749509    2.1749509
15217000            0    2.1807702    2.1807702
15218000            0    2.1851168    2.1851168
15219000            0    2.1866569    2.1866569
15220000            0    2.1934507    2.1934507
15221000            0    2.2030988    2.2030988
15222000            0    2.2145464    2.2145464
15223000            0    2.2265002    2.2265002
15224000            0    2.2371599    2.2371599
15225000            0    2.2462031    2.2462031
15226000            0    2.2532273    2.2532273
15227000            0    2.2594373    2.2594373
15228000            0    2.2519123    2.2519123
15229000            0    2.2567726    2.2567726
15230000            0    2.2605315    2.2605315
15231000            0    2.2667695    2.2667695
15232000            0    2.2761151    2.2761151
15233000            0    2.2874033    2.2874033
15234000            0    2.3003006    2.3003006
15235000            0    2.3121803    2.3121803
15236000            0    2.3225539    2.3225539
15237000            0     2.332208     2.332208
15238000            0    2.3422474    2.3422474
15239000            0    2.3528768    2.3528768
15240000            0    2.3640798    2.3640798
15241000            0    2.3758435    2.3758435
15242000            0    2.3880871    2.3880871
15243000            0    2.3959395    2.3959395
15244000            0    2.4071282    2.4071282
15245000            0    2.4179102    2.4179102
15246000            0    2.4278157    2.4278157
15247000            0    2.4367755    2.4367755
15248000            0    2.4452287    2.4452287
15249000            0    2.4538509    2.4538509
15250000            0    2.4630563    2.4630563
15251000            0    2.4745296    2.4745296
15252000            0    2.4659845    2.4659845
15253000            0     2.475918     2.475918
15254000            0    2.4661986    2.4661986
15255000            0    2.4709626    2.4709626
15256000            0    2.4582876    2.4582876
15257000            0    2.4476852    2.4476852
15258000            0    2.4558478    2.4558478
15259000            0    2.4681422    2.4681422
15260000            0    2.4813287    2.4813287
15261000            0    2.4942132    2.4942132
15262000            0    2.5070453    2.5070453
15263000            0    2.5199556    2.5199556
15264000            0    2.5330073    2.5330073
15265000            0    2.5458556    2.5458556
15266000            0    2.5587281    2.5587281
15267000            0    2.5705546    2.5705546
15268000            0    2.5839537    2.5839537
15269000            0    2.5856073    2.5856073
15270000            0     2.561062     2.561062
15271000            0    2.5397454    2.5397454
15272000            0    2.5560742    2.5560742
15273000            0    2.6019517    2.6019517
15274000            0    2.6127048    2.6127048
15275000            0    2.6202321    2.6202321
15276000            0    2.6147862    2.6147862
15277000            0    2.6028355    2.6028355
15278000            0    2.5729212    2.5729212
15279000            0    2.5670626    2.5670626
15280000            0    2.5619376    2.5619376
15281000            0     2.561077     2.561077
15282000            0     2.563666     2.563666
15283000            0    2.5682577    2.5682577
15284000            0    2.5742542    2.5742542
15285000            0    2.5807975    2.5807975
15286000            0    2.5923124    2.5923124
15287000            0    2.6044131    2.6044131
15288000            0    2.6182847    2.6182847
15289000            0    2.5999817    2.5999817
15290000            0    2.6127602    2.6127602
15291000            0     2.657118     2.657118
15292000            0     2.663512     2.663512
15293000            0    2.6716381    2.6716381
15294000            0    2.6514845    2.6514845
15295000            0    2.6563424    2.6563424
15296000            0    2.6615622    2.6615622
15297000            0    2.6661046    2.6661046
15298000            0     2.670154     2.670154
15299000            0    2.6744979    2.6744979
15300000            0    2.6791054    2.6791054
15301000            0    2.6846486    2.6846486
15302000            0    2.6911254    2.6911254
15303000            0    2.6970897    2.6970897
15304000            0     2.702901     2.702901
15305000            0    2.7070455    2.7070455
15306000            0    2.7095262    2.7095262
15307000            0    2.7111908    2.7111908
15308000            0    2.7136351    2.7136351
15309000            0    2.7109374    2.7109374
15310000            0    2.7184433    2.7184433
15311000            0     2.729282     2.729282
15312000            0    2.7424485    2.7424485
15313000            0    2.7574635    2.7574635
15314000            0    2.7727698    2.7727698
15315000            0    2.7853993    2.7853993
15316000            0    2.7969127    2.7969127
15317000            0    2.8063365    2.8063365
15318000            0    2.8139863    2.8139863
15319000            0    2.8197615    2.8197615
15320000            0    2.8183323    2.8183323
15321000            0    2.8230707    2.8230707
15322000            0    2.8301901    2.8301901
15323000            0    2.8377147    2.8377147
15324000            0     2.845328     2.845328
15325000            0    2.8510772    2.8510772
15326000            0    2.8572508    2.8572508
15327000            0    2.8668126    2.8668126
15328000            0    2.8772801    2.8772801
15329000            0    2.8882691    2.8882691
15330000            0    2.8992882    2.8992882
15331000            0    2.9097314    2.9097314
15332000            0    2.9189585    2.9189585
15333000            0    2.9290162    2.9290162
15334000            0     2.939588     2.939588
15335000            0    2.9492333    2.9492333
15336000            0    2.9563018    2.9563018
15337000            0     2.959365     2.959365
15338000            0    2.9470619    2.9470619
15339000            0    2.9533336    2.9533336
15340000            0    2.9630497    2.9630497
15341000            0    2.9757037    2.9757037
15342000            0     2.984299     2.984299
15343000            0    2.9941888    2.9941888
15344000            0    3.0032031    3.0032031
15345000            0    3.0126132    3.0126132
15346000            0    3.0216106    3.0216106
15347000            0    3.0336641    3.0336641
15348000            0    3.0471176    3.0471176
15349000            0    3.0540608    3.0540608
15350000            0    3.0498159    3.0498159
15351000            0     3.034329     3.034329
15352000            0     3.022124     3.022124
15353000            0    3.0207407    3.0207407
15354000            0    3.0336324    3.0336324
15355000            0    3.0537959    3.0537959
15356000            0    3.0758496    3.0758496
15357000            0    3.0627872    3.0627872
15358000            0    3.0708205    3.0708205
15359000            0    3.0764292    3.0764292
15360000            0    3.0807893    3.0807893
15361000            0     3.085929     3.085929
Loop time of 403.765 on 1 procs for 1000000 steps with 5001 atoms

100.0% CPU use with 1 MPI tasks x 1 OpenMP threads

MPI task timing breakdown:
Section |  min time  |  avg time  |  max time  |%varavg| %total
---------------------------------------------------------------
Pair    | 19.619     | 19.619     | 19.619     |   0.0 |  4.86
Neigh   | 47.99      | 47.99      | 47.99      |   0.0 | 11.89
Comm    | 37.944     | 37.944     | 37.944     |   0.0 |  9.40
Output  | 1.1983     | 1.1983     | 1.1983     |   0.0 |  0.30
Modify  | 284.47     | 284.47     | 284.47     |   0.0 | 70.45
Other   |            | 12.55      |            |       |  3.11

Nlocal:           5001 ave        5001 max        5001 min
Histogram: 1 0 0 0 0 0 0 0 0 0
Nghost:           2998 ave        2998 max        2998 min
Histogram: 1 0 0 0 0 0 0 0 0 0
Neighs:            600 ave         600 max         600 min
Histogram: 1 0 0 0 0 0 0 0 0 0

Total # of neighbors = 600
Ave neighs/atom = 0.119976
Neighbor list builds = 26658
Dangerous builds = 0
write_restart     restart/res$i.inp
write_restart     restart/res01.inp
System init for write_restart ...
Generated 0 of 3 mixed pair_coeff terms from geometric mixing rule

label continue

clear
OMP_NUM_THREADS environment is not set. Defaulting to 1 thread. (src/comm.cpp:98)
  using 1 OpenMP thread(s) per MPI task

read_restart restart/res$i.inp
read_restart restart/res01.inp
Reading restart file ...
  restart file = 29 Aug 2024, LAMMPS = 29 Aug 2024
  restoring atom style sphere from restart
  orthogonal box = (0 0 0) to (20 20 200)
  1 by 1 by 1 MPI processor grid
  restoring pair style granular from restart
  5001 atoms
  read_restart CPU = 0.000 seconds

next i
jump SELF loop

variable restart_exists equal is_file(restart/res$i.inp)
variable restart_exists equal is_file(restart/res02.inp)
if "${restart_exists} == 1" then     "print '################################################################'"     "print '################ restart/res$i.inp detected! ###################'"     "print '################ Skipping Case: $i #############################'"     "print '################################################################'"     "jump SELF continue"

include setup.lmp
# variable amplitude equal $(df[run_id, :amp])
# variable period equal 1.0/$(df[run_id, :freq])

variable period equal 1.0/100

variable T atom (vx*vx+vy*vy+vz*vz)/3
variable vx2 atom vx*vx
variable vy2 atom vy*vy
variable vz2 atom vz*vz

group mobile type 1
5000 atoms in group mobile
group intr type 2
1 atoms in group intr

comm_modify vel yes

# Particle interaction model
# Ref: https://docs.lammps.org/pair_granular.html
pair_style granular
pair_coeff * * hooke 9.81e6 335.056 tangential linear_nohistory 0.0 0.0 damping mass_velocity

fix 1 all nve/sphere
fix 2 all gravity 981 vector 0 0 -1.0
fix 3 all wall/gran granular hooke 9.81e6 335.056 tangential linear_nohistory 0.0 0.0 damping mass_velocity zplane 0.0 NULL wiggle z 0.1 ${period}
fix 3 all wall/gran granular hooke 9.81e6 335.056 tangential linear_nohistory 0.0 0.0 damping mass_velocity zplane 0.0 NULL wiggle z 0.1 0.01
fix 4 all wall/reflect zhi EDGE

compute ch all chunk/atom bin/1d z lower 0.25
compute cols all stress/atom NULL pair

compute cont mobile contact/atom intr

compute ke_mobile mobile ke/atom
compute kepa_mobile mobile reduce ave c_ke_mobile
compute temp_mobile mobile temp
# compute intr_contacts intr contact/atom mobile
# compute intr_contacts_reduced all reduce sum c_intr_contacts

fix 5 mobile ave/chunk 2 $(10000/2) 10000 ch density/number v_T vx vy vz v_vx2 v_vy2 v_vz2 c_cols[*] ave running file chunk/binned$i.dat overwrite
fix 5 mobile ave/chunk 2 5000 10000 ch density/number v_T vx vy vz v_vx2 v_vy2 v_vz2 c_cols[*] ave running file chunk/binned$i.dat overwrite
fix 5 mobile ave/chunk 2 5000 10000 ch density/number v_T vx vy vz v_vx2 v_vy2 v_vz2 c_cols[*] ave running file chunk/binned02.dat overwrite

dump 1 all custom 10000 dump/out$i.dump id type radius x y z vx vy vz
dump 1 all custom 10000 dump/out02.dump id type radius x y z vx vy vz

dump 2 mobile custom 100 dump/contacts$i.dump id type radius x y z vx vy vz fx fy fz c_cont
dump 2 mobile custom 100 dump/contacts02.dump id type radius x y z vx vy vz fx fy fz c_cont
dump_modify 2 thresh c_cont != 0

dump 3 intr custom 100 dump/intruder$i.dump id type radius x y z vx vy vz fx fy fz c_cont
dump 3 intr custom 100 dump/intruder02.dump id type radius x y z vx vy vz fx fy fz c_cont

thermo 10000
thermo_style custom step ke c_kepa_mobile temp c_temp_mobile # c_intr_contacts_reduced

timestep    1.0e-6
run_style     verlet
log         log/log$i.lammps
log         log/log02.lammps
